# stupid comment line
       0       0.000         0.015675735       300.000000000         0.029894724         0.045570459         0.000000000
       5       5.000         0.008711175       166.713237534         0.036975396         0.045686571         0.015600000
      10      10.000         0.005514708       105.539699505         0.040158912         0.045673620         0.015700000
      15      15.000         0.010924827       209.077788471         0.034686279         0.045611106         0.015700000
      20      20.000         0.011063499       211.731677267         0.034614741         0.045678240         0.015800000
      25      25.000         0.009994099       191.265643220         0.035628960         0.045623059         0.015700000
      30      30.000         0.008714539       166.777613577         0.036946284         0.045660823         0.015700000
      35      35.000         0.009555136       182.864832285         0.036112123         0.045667259         0.015700000
      40      40.000         0.011027704       211.046644718         0.034574417         0.045602122         0.015800000
      45      45.000         0.008812407       168.650596269         0.036877594         0.045690001         0.015800000
      50      50.000         0.010526810       201.460600270         0.035102722         0.045629532         0.015800000
      55      55.000         0.009999236       191.363959881         0.035627415         0.045626651         0.015700000
      60      60.000         0.008647385       165.492429997         0.037045368         0.045692753         0.015800000
      65      65.000         0.011494838       219.986578912         0.034098212         0.045593050         0.015800000
      70      70.000         0.008705953       166.613287375         0.036955842         0.045661795         0.015900000
      75      75.000         0.007904673       151.278512684         0.037763849         0.045668522         0.015700000
      80      80.000         0.011176290       213.890248822         0.034417024         0.045593314         0.015700000
      85      85.000         0.009894608       189.361602525         0.035790143         0.045684751         0.015700000
      90      90.000         0.010815577       206.986982531         0.034800656         0.045616233         0.015800000
      95      95.000         0.009761339       186.811119181         0.035866777         0.045628116         0.015800000
     100     100.000         0.007844166       150.120545659         0.037852247         0.045696413         0.015900000
     105     105.000         0.012230147       234.058825856         0.033344657         0.045574804         0.015700000
     110     110.000         0.009903906       189.539548079         0.035774061         0.045677967         0.015700000
     115     115.000         0.009265148       177.315092498         0.036376381         0.045641529         0.016000000
     120     120.000         0.008906072       170.443136411         0.036708428         0.045614499         0.016100000
     125     125.000         0.008257514       158.031128585         0.037445922         0.045703436         0.015700000
     130     130.000         0.013228587       253.166827374         0.032350427         0.045579014         0.015800000
     135     135.000         0.009097607       174.108716037         0.036568240         0.045665847         0.015800000
     140     140.000         0.007441990       142.423753175         0.038227651         0.045669642         0.015800000
     145     145.000         0.010064798       192.618680938         0.035532561         0.045597359         0.015900000
     150     150.000         0.008467590       162.051545964         0.037224383         0.045691973         0.015900000
     155     155.000         0.011225525       214.832515297         0.034396681         0.045622207         0.015700000
     160     160.000         0.011661761       223.181137823         0.033960580         0.045622341         0.015700000
     165     165.000         0.007669430       146.776470194         0.038020918         0.045690349         0.016300000
     170     170.000         0.008842504       169.226596423         0.036768372         0.045610876         0.015900000
     175     175.000         0.010155689       194.358141515         0.035509238         0.045664928         0.015800000
     180     180.000         0.011477923       219.662862564         0.034168243         0.045646166         0.015800000
     185     185.000         0.011280127       215.877476198         0.034321183         0.045601310         0.015900000
     190     190.000         0.007400014       141.620415682         0.038300508         0.045700521         0.015800000
     195     195.000         0.009436347       180.591469088         0.036175778         0.045612125         0.015900000
     200     200.000         0.010265606       196.461717032         0.035374703         0.045640310         0.015800000
     205     205.000         0.010227232       195.727310171         0.035444402         0.045671634         0.016000000
     210     210.000         0.011093132       212.298795791         0.034492955         0.045586088         0.015700000
     215     215.000         0.007371173       141.068471125         0.038324070         0.045695244         0.016000000
     220     220.000         0.010471213       200.396581553         0.035152384         0.045623597         0.015600000
     225     225.000         0.011307188       216.395364681         0.034308865         0.045616053         0.016300000
     230     230.000         0.009446188       180.779806122         0.036240514         0.045686702         0.015800000
     235     235.000         0.011226252       214.846426978         0.034367001         0.045593253         0.015800000
     240     240.000         0.009102726       174.206682522         0.036561714         0.045664440         0.016000000
     245     245.000         0.010073814       192.791226338         0.035582204         0.045656018         0.016200000
     250     250.000         0.012213170       233.733910541         0.033376987         0.045590157         0.015700000
     255     255.000         0.009368437       179.291811502         0.036320433         0.045688869         0.015800000
     260     260.000         0.011073108       211.915575298         0.034538808         0.045611916         0.015800000
     265     265.000         0.010673926       204.276091774         0.034953856         0.045627783         0.015700000
     270     270.000         0.008699614       166.491970186         0.036982772         0.045682385         0.015800000
     275     275.000         0.011443103       218.996484321         0.034150032         0.045593135         0.015800000
     280     280.000         0.010239874       195.969258244         0.035440207         0.045680081         0.015700000
     285     285.000         0.011745230       224.778549312         0.033884580         0.045629810         0.015800000
     290     290.000         0.010667285       204.148984734         0.034962696         0.045629980         0.015800000
     295     295.000         0.009129122       174.711834738         0.036559835         0.045688956         0.015900000
     300     300.000         0.012595550       241.051843855         0.033010998         0.045606547         0.015800000
     305     305.000         0.010783495       206.372998070         0.034879172         0.045662667         0.015800000
     310     310.000         0.010430172       199.611161811         0.035234293         0.045664466         0.015900000
     315     315.000         0.012703291       243.113780528         0.032915592         0.045618883         0.015800000
     320     320.000         0.011146922       213.328215608         0.034516796         0.045663718         0.015700000
     325     325.000         0.009549557       182.758059538         0.036103005         0.045652562         0.015700000
     330     330.000         0.011095736       212.348615512         0.034543585         0.045639320         0.016000000
     335     335.000         0.013180589       252.248250735         0.032472064         0.045652653         0.015700000
     340     340.000         0.012329170       235.953905118         0.033302911         0.045632081         0.015800000
     345     345.000         0.010319925       197.501266562         0.035325634         0.045645559         0.015600000
     350     350.000         0.009471235       181.259154332         0.036198416         0.045669651         0.015800000
     355     355.000         0.012257974       234.591371029         0.033361803         0.045619777         0.015700000
     360     360.000         0.012838871       245.708502491         0.032808771         0.045647642         0.016200000
     365     365.000         0.011058377       211.633649366         0.034589277         0.045647653         0.015800000
     370     370.000         0.010442372       199.844632645         0.035192698         0.045635069         0.015900000
     375     375.000         0.011238831       215.087148414         0.034428766         0.045667596         0.015700000
     380     380.000         0.013237333       253.334211748         0.032378621         0.045615954         0.015700000
     385     385.000         0.011446202       219.055800841         0.034209911         0.045656113         0.015700000
     390     390.000         0.011307127       216.394198651         0.034348972         0.045656100         0.015900000
     395     395.000         0.012061120       230.824001749         0.033548641         0.045609761         0.015800000
     400     400.000         0.009311567       178.203453106         0.036373331         0.045684898         0.016300000
     405     405.000         0.012768007       244.352311970         0.032861108         0.045629116         0.015800000
     410     410.000         0.013714980       262.475352744         0.031906129         0.045621110         0.015900000
     415     415.000         0.009616050       184.030596433         0.036058818         0.045674868         0.016100000
     420     420.000         0.010072416       192.764469070         0.035562718         0.045635134         0.015700000
     425     425.000         0.011921065       228.143655967         0.033731669         0.045652734         0.015700000
     430     430.000         0.013414576       256.726261056         0.032220636         0.045635212         0.015700000
     435     435.000         0.010933344       209.240796189         0.034710117         0.045643461         0.015900000
     440     440.000         0.009709105       185.811470634         0.035958568         0.045667672         0.015900000
     445     445.000         0.012396659       237.245505540         0.033236762         0.045633422         0.015800000
     450     450.000         0.012015464       229.950239654         0.033627959         0.045643422         0.015700000
     455     455.000         0.010481240       200.588494229         0.035180756         0.045661997         0.016300000
     460     460.000         0.012001189       229.677055906         0.033645576         0.045646766         0.015800000
     465     465.000         0.013386002       256.179414972         0.032248042         0.045634044         0.016000000
     470     470.000         0.010847205       207.592275969         0.034813813         0.045661018         0.015700000
     475     475.000         0.010511394       201.165576221         0.035135624         0.045647018         0.017700000
     480     480.000         0.011396341       218.101563404         0.034252137         0.045648478         0.015800000
     485     485.000         0.012307939       235.547597788         0.033341498         0.045649437         0.015800000
     490     490.000         0.011883004       227.415255007         0.033750961         0.045633965         0.016000000
     495     495.000         0.009428824       180.447496785         0.036238724         0.045667548         0.015700000
     500     500.000         0.011175352       213.872302794         0.034471236         0.045646588         0.015700000
     505     505.000         0.012484482       238.926238472         0.033148465         0.045632947         0.015700000
     510     510.000         0.010847186       207.591901762         0.034811874         0.045659059         0.015800000
     515     515.000         0.010369668       198.453236845         0.035282588         0.045652256         0.015900000
     520     520.000         0.011884526       227.444376794         0.033756091         0.045640617         0.015700000
     525     525.000         0.011652307       223.000209277         0.033995315         0.045647622         0.016200000
     530     530.000         0.009870573       188.901628808         0.035784634         0.045655207         0.015800000
     535     535.000         0.011073814       211.929090827         0.034574785         0.045648599         0.016100000
     540     540.000         0.011756762       224.999243349         0.033890148         0.045646910         0.016000000
     545     545.000         0.010949911       209.557852924         0.034696795         0.045646706         0.015900000
     550     550.000         0.010800374       206.696033496         0.034859517         0.045659891         0.015800000
     555     555.000         0.011384281       217.870756276         0.034259483         0.045643764         0.016000000
     560     560.000         0.010146555       194.183326551         0.035500709         0.045647264         0.016000000
     565     565.000         0.009960772       190.627843741         0.035713493         0.045674265         0.016400000
     570     570.000         0.012739766       243.811839776         0.032885318         0.045625084         0.015700000
     575     575.000         0.010508950       201.118801807         0.035141167         0.045650118         0.015800000
     580     580.000         0.007760600       148.521258717         0.037925169         0.045685769         0.016400000
     585     585.000         0.012258193       234.595563688         0.033365825         0.045624018         0.015700000
     590     590.000         0.013884297       265.715709032         0.031772247         0.045656544         0.015900000
     595     595.000         0.011508827       220.254307170         0.034130815         0.045639643         0.015600000
     600     600.000         0.008598187       164.550874899         0.037066306         0.045664492         0.017800000
     605     605.000         0.011395602       218.087409825         0.034274397         0.045669998         0.015700000
     610     610.000         0.014726155       281.827065795         0.030880730         0.045606885         0.015800000
     615     615.000         0.010988513       210.296611947         0.034690238         0.045678751         0.016000000
     620     620.000         0.010741221       205.563968614         0.034919476         0.045660697         0.015700000
     625     625.000         0.012997548       248.745221875         0.032623938         0.045621486         0.015800000
     630     630.000         0.011657466       223.098928879         0.034026742         0.045684208         0.015800000
     635     635.000         0.013130165       251.283238441         0.032494407         0.045624572         0.015700000
     640     640.000         0.011522748       220.520723428         0.034125014         0.045647762         0.016000000
     645     645.000         0.008938424       171.062297766         0.036749902         0.045688327         0.015700000
     650     650.000         0.012914170       247.149556440         0.032696195         0.045610365         0.015700000
     655     655.000         0.012549554       240.171590935         0.033120972         0.045670526         0.015800000
     660     660.000         0.011682663       223.581156238         0.033962323         0.045644987         0.015800000
     665     665.000         0.011517350       220.417407184         0.034118211         0.045635560         0.016000000
     670     670.000         0.010934859       209.269775608         0.034750693         0.045685552         0.015800000
     675     675.000         0.013660112       261.425292420         0.031949140         0.045609253         0.015800000
     680     680.000         0.012217787       233.822266561         0.033452298         0.045670084         0.016200000
     685     685.000         0.011783106       225.503405741         0.033867181         0.045650287         0.016000000
     690     690.000         0.011296132       216.183779613         0.034327968         0.045624100         0.015900000
     695     695.000         0.009995526       191.292963688         0.035693373         0.045688899         0.015900000
     700     700.000         0.012562817       240.425413508         0.033052930         0.045615747         0.015700000
     705     705.000         0.011514716       220.366995757         0.034140832         0.045655548         0.015700000
     710     710.000         0.011365629       217.513791857         0.034306592         0.045672221         0.015900000
     715     715.000         0.012500226       239.227547501         0.033110360         0.045610586         0.015800000
     720     720.000         0.009536120       182.500907412         0.036153237         0.045689357         0.015800000
     725     725.000         0.011591024       221.827381920         0.034049420         0.045640444         0.015800000
     730     730.000         0.012548966       240.160332759         0.033075823         0.045624789         0.015800000
     735     735.000         0.009606419       183.846288019         0.036083876         0.045690295         0.015700000
     740     740.000         0.011582855       221.671040552         0.034041886         0.045624741         0.015800000
     745     745.000         0.012771850       244.425860416         0.032880085         0.045651936         0.015700000
     750     750.000         0.011693393       223.786491490         0.033963105         0.045656498         0.015800000
     755     755.000         0.010317715       197.458961972         0.035302127         0.045619841         0.015900000
     760     760.000         0.009120879       174.554095545         0.036572620         0.045693499         0.015900000
     765     765.000         0.013055027       249.845255625         0.032554699         0.045609726         0.015800000
     770     770.000         0.011035303       211.192067401         0.034601696         0.045636999         0.015900000
     775     775.000         0.008446399       161.645978877         0.037250226         0.045696625         0.015900000
     780     780.000         0.012047364       230.560750599         0.033540052         0.045587416         0.015900000
     785     785.000         0.009335170       178.655156876         0.036344605         0.045679775         0.015800000
     790     790.000         0.009246333       176.955002628         0.036404351         0.045650684         0.015700000
     795     795.000         0.011536242       220.778958460         0.034076679         0.045612921         0.015600000
     800     800.000         0.011379825       217.785479849         0.034310071         0.045689896         0.015800000
     805     805.000         0.012799320       244.951577017         0.032795346         0.045594666         0.016100000
     810     810.000         0.008715269       166.791585713         0.036959360         0.045674629         0.016100000
     815     815.000         0.009287855       177.749652889         0.036382621         0.045670476         0.015700000
     820     820.000         0.012761020       244.218596855         0.032828077         0.045589098         0.015800000
     825     825.000         0.009075982       173.694865337         0.036624285         0.045700267         0.015800000
     830     830.000         0.010081129       192.931226703         0.035544518         0.045625647         0.019700000
     835     835.000         0.011010500       210.717382513         0.034625702         0.045636202         0.016000000
     840     840.000         0.010300181       197.123412804         0.035380453         0.045680635         0.015800000
     845     845.000         0.010651645       203.849675357         0.034955165         0.045606810         0.016000000
     850     850.000         0.008810370       168.611603600         0.036875569         0.045685939         0.015800000
     855     855.000         0.010993422       210.390557835         0.034644788         0.045638211         0.015900000
     860     860.000         0.009902804       189.518468412         0.035723608         0.045626412         0.016100000
     865     865.000         0.008479926       162.287614964         0.037222053         0.045701979         0.015800000
     870     870.000         0.013443777       257.285089877         0.032160578         0.045604355         0.015800000
     875     875.000         0.011390190       217.983832877         0.034255855         0.045646044         0.015900000
     880     880.000         0.007919480       151.561888128         0.037771182         0.045690662         0.015800000
     885     885.000         0.011786814       225.574376615         0.033820682         0.045607496         0.016000000
     890     890.000         0.012397941       237.270039506         0.033266310         0.045664251         0.015800000
     895     895.000         0.011112138       212.662530731         0.034533708         0.045645846         0.015900000
     900     900.000         0.010223277       195.651627494         0.035405646         0.045628923         0.015800000
     905     905.000         0.009322983       178.421931834         0.036367776         0.045690759         0.016000000
     910     910.000         0.012636669       241.838772969         0.032966145         0.045602814         0.016000000
     915     915.000         0.010459823       200.178613997         0.035192201         0.045652024         0.015800000
     920     920.000         0.008615836       164.888649639         0.037065592         0.045681428         0.015700000
     925     925.000         0.013112556       250.946246920         0.032484876         0.045597433         0.015900000
     930     930.000         0.011658259       223.114103142         0.034012397         0.045670656         0.016000000
     935     935.000         0.009386097       179.629799382         0.036253775         0.045639872         0.015800000
     940     940.000         0.009176579       175.620072668         0.036473476         0.045650056         0.015800000
     945     945.000         0.012024242       230.118243972         0.033641507         0.045665749         0.015800000
     950     950.000         0.013706389       262.310921002         0.031893640         0.045600029         0.016200000
     955     955.000         0.009626997       184.240107149         0.036058220         0.045685217         0.015800000
     960     960.000         0.011243298       215.172635003         0.034401814         0.045645111         0.015900000
     965     965.000         0.012638853       241.880578349         0.032977189         0.045616042         0.015800000
     970     970.000         0.009921921       189.884312726         0.035767559         0.045689480         0.015800000
     975     975.000         0.011360611       217.417757317         0.034263304         0.045623914         0.015800000
     980     980.000         0.011668077       223.302000800         0.033982407         0.045650484         0.015800000
     985     985.000         0.010730758       205.363721967         0.034932492         0.045663250         0.016000000
     990     990.000         0.010403387       199.098540177         0.035218584         0.045621971         0.015800000
     995     995.000         0.009432142       180.510990154         0.036250237         0.045682378         0.015900000
    1000    1000.000         0.012237794       234.205169387         0.033386901         0.045624696         0.015800000
    1005    1005.000         0.011343771       217.095474528         0.034296754         0.045640525         0.015800000
    1010    1010.000         0.009054586       173.285384834         0.036620159         0.045674746         0.016000000
    1015    1015.000         0.010663840       204.083052007         0.034958325         0.045622164         0.015700000
    1020    1020.000         0.010955298       209.660946014         0.034709763         0.045665061         0.015900000
    1025    1025.000         0.012152624       232.575199141         0.033483370         0.045635994         0.015800000
    1030    1030.000         0.010791740       206.530794431         0.034843744         0.045635484         0.015800000
    1035    1035.000         0.009065230       173.489079659         0.036618579         0.045683809         0.016000000
    1040    1040.000         0.012553738       240.251662986         0.033065604         0.045619343         0.015900000
    1045    1045.000         0.012468704       238.624295344         0.033178154         0.045646858         0.015700000
    1050    1050.000         0.011174437       213.854796885         0.034488057         0.045662494         0.015800000
    1055    1055.000         0.011246237       215.228889703         0.034377934         0.045624171         0.016200000
    1060    1060.000         0.009422441       180.325332231         0.036254303         0.045676743         0.016000000
    1065    1065.000         0.011735791       224.597911657         0.033903849         0.045639640         0.015800000
    1070    1070.000         0.013004843       248.884845923         0.032624538         0.045629381         0.015700000
    1075    1075.000         0.009991387       191.213739537         0.035674784         0.045666171         0.015700000
    1080    1080.000         0.008933349       170.965159312         0.036710206         0.045643554         0.015700000
    1085    1085.000         0.011465066       219.416812783         0.034182909         0.045647975         0.015900000
    1090    1090.000         0.012599033       241.118503934         0.033044592         0.045643625         0.015900000
    1095    1095.000         0.011133543       213.072164877         0.034496543         0.045630085         0.015800000
    1100    1100.000         0.009662490       184.919366728         0.036016139         0.045678629         0.015800000
    1105    1105.000         0.012076055       231.109833672         0.033546990         0.045623045         0.015800000
    1110    1110.000         0.011242221       215.152022533         0.034404434         0.045646654         0.015900000
    1115    1115.000         0.010645235       203.726996978         0.035025865         0.045671100         0.015700000
    1120    1120.000         0.012480925       238.858168795         0.033135285         0.045616210         0.015800000
    1125    1125.000         0.011130512       213.014168192         0.034536022         0.045666535         0.016500000
    1130    1130.000         0.012039951       230.418872283         0.033604595         0.045644545         0.015800000
    1135    1135.000         0.011581545       221.645969434         0.034044367         0.045625912         0.015700000
    1140    1140.000         0.008737904       167.224768009         0.036944949         0.045682853         0.015700000
    1145    1145.000         0.011715443       224.208496435         0.033915828         0.045631271         0.016500000
    1150    1150.000         0.012752503       244.055587686         0.032882685         0.045635188         0.015900000
    1155    1155.000         0.009901017       189.484261605         0.035770061         0.045671078         0.015900000
    1160    1160.000         0.010003343       191.442565599         0.035626160         0.045629503         0.015800000
    1165    1165.000         0.010400505       199.043390449         0.035264914         0.045665419         0.015900000
    1170    1170.000         0.012305573       235.502316496         0.033336985         0.045642558         0.015700000
    1175    1175.000         0.012489029       239.013271046         0.033134568         0.045623597         0.015700000
    1180    1180.000         0.009227478       176.594157785         0.036449176         0.045676653         0.015800000
    1185    1185.000         0.009839571       188.308317519         0.035802239         0.045641810         0.015700000
    1190    1190.000         0.012627129       241.656212969         0.033014385         0.045641514         0.015700000
    1195    1195.000         0.012877270       246.443372368         0.032769395         0.045646665         0.015700000
    1200    1200.000         0.010056277       192.455599748         0.035587080         0.045643357         0.015800000
    1205    1205.000         0.009753180       186.654979765         0.035916587         0.045669767         0.015900000
    1210    1210.000         0.012875019       246.400293135         0.032754405         0.045629425         0.015600000
    1215    1215.000         0.011770908       225.269960702         0.033868221         0.045639128         0.015800000
    1220    1220.000         0.009966673       190.740784523         0.035702106         0.045668779         0.016300000
    1225    1225.000         0.011801076       225.847319312         0.033821709         0.045622785         0.015800000
    1230    1230.000         0.010488560       200.728583837         0.035167602         0.045656163         0.016000000