      13
 i =       0, E =        0.0298947236
  O         1.1608550000        0.0000040000        0.2544330000
  C         0.4226440000        1.1261720000       -0.1818820000
  C         0.4226530000       -1.1261690000       -0.1818820000
  C        -1.0526260000       -0.7729750000        0.0594090000
  C        -1.0526310000        0.7729680000        0.0594090000
  H         0.7734780000       -1.9931700000        0.3813110000
  H         0.6126800000       -1.3035380000       -1.2525020000
  H         0.7734640000        1.9931760000        0.3813110000
  H         0.6126710000        1.3035420000       -1.2525020000
  H        -1.7022060000        1.1944630000       -0.7125610000
  H        -1.3903870000        1.1611670000        1.0237900000
  H        -1.7021990000       -1.1944750000       -0.7125620000
  H        -1.3903800000       -1.1611760000        1.0237910000
      13
 i =       5, E =        0.0369753957
  O         1.1814236022       -0.0086238756        0.2473019363
  C         0.4036377828        1.1396533564       -0.1953201774
  C         0.3698115354       -1.1273504207       -0.2098677271
  C        -1.0116073875       -0.7969127596        0.0917797871
  C        -1.0191025844        0.7727414269        0.0742737935
  H         0.7430662607       -1.9939855328        0.4181952123
  H         0.5856942072       -1.2947951433       -1.2435933401
  H         0.6832029158        2.0114267342        0.3667344586
  H         0.5405380184        1.3521810198       -1.2799600864
  H        -1.7228253251        1.2735519977       -0.7010414140
  H        -1.4410768441        1.2380522085        1.0030705241
  H        -1.7212155202       -1.1821570724       -0.6587745247
  H        -1.4389212970       -1.1259546112        1.0193867160
      13
 i =      10, E =        0.0401589125
  O         1.1891839000       -0.0149391480        0.2313433994
  C         0.3887956056        1.1526464877       -0.2061441724
  C         0.3428469174       -1.1357570273       -0.2164145254
  C        -0.9886291848       -0.8008098751        0.1166997764
  C        -1.0009925070        0.7761348098        0.0838687965
  H         0.6721180383       -1.9892861814        0.3639865215
  H         0.5694606714       -1.2880037445       -1.3155927161
  H         0.6435783697        2.0901907278        0.3720143308
  H         0.5117118041        1.3505153013       -1.2873538054
  H        -1.6514653449        1.2266731917       -0.6173152139
  H        -1.4339906682        1.2327627275        0.9742611886
  H        -1.7361751720       -1.1738717582       -0.6111721449
  H        -1.4613954374       -1.1190669412        1.0942133195
      13
 i =      15, E =        0.0346862790
  O         1.1788680967       -0.0172732101        0.2060464579
  C         0.3889672320        1.1687888010       -0.2069853271
  C         0.3504956539       -1.1436996142       -0.2185568239
  C        -0.9983210591       -0.7842371062        0.1428486861
  C        -0.9894223100        0.7702835952        0.0973420865
  H         0.6311453316       -2.0671988482        0.2828635684
  H         0.5140630917       -1.2736701413       -1.3223121966
  H         0.6489032000        2.1088945217        0.3362195793
  H         0.5267751893        1.3117516688       -1.2920458590
  H        -1.6562303155        1.1573479885       -0.6440412051
  H        -1.3881611201        1.1792480563        1.0151831568
  H        -1.7364832624       -1.1707866340       -0.5687504473
  H        -1.3779937132       -1.1040914808        1.1308820188
      13
 i =      20, E =        0.0346147406
  O         1.1563180886       -0.0144843910        0.1773325495
  C         0.4040333535        1.1786097259       -0.2037535993
  C         0.3776561369       -1.1525228503       -0.2228672583
  C        -1.0254200754       -0.7539077240        0.1677952843
  C        -0.9865279910        0.7562505253        0.1117842970
  H         0.6600620218       -2.1725288832        0.2112718132
  H         0.4364067988       -1.2439033059       -1.2852897068
  H         0.7162014680        2.0839633412        0.2852432555
  H         0.5606612369        1.2700415533       -1.2982533145
  H        -1.7274214526        1.1011743844       -0.7296612270
  H        -1.3374562714        1.1278420654        1.1179855503
  H        -1.7587051809       -1.1830751842       -0.5326613459
  H        -1.2445362973       -1.0923635923        1.1686434715
      13
 i =      25, E =        0.0356289603
  O         1.1339520019       -0.0079828627        0.1524643635
  C         0.4243620605        1.1715228180       -0.2080890424
  C         0.3999598615       -1.1686920948       -0.2242482646
  C        -1.0470107037       -0.7256853217        0.1869064493
  C        -1.0034652655        0.7495401363        0.1214776723
  H         0.7377106303       -2.1475971759        0.1404338656
  H         0.3867350426       -1.2035328159       -1.3367965950
  H         0.8464890888        2.0871555634        0.2757042492
  H         0.5841205536        1.2517169412       -1.2919202535
  H        -1.7076530390        1.0303997826       -0.6614144808
  H        -1.2837017823        1.0836402241        1.1459875718
  H        -1.8077574055       -1.1999772746       -0.4685336593
  H        -1.1446156187       -1.0930726878        1.2534399201
      13
 i =      30, E =        0.0369462837
  O         1.1219279092       -0.0036445688        0.1357800615
  C         0.4435763166        1.1576640778       -0.2183686625
  C         0.3990078729       -1.1761467583       -0.2396366349
  C        -1.0504954694       -0.7206084499        0.2098112107
  C        -1.0187063439        0.7503445924        0.1352709397
  H         0.8616572766       -2.0748699003        0.1202860056
  H         0.3779010473       -1.1720269071       -1.3690991107
  H         0.9426654610        2.0345715587        0.2689291426
  H         0.5873693390        1.2584556250       -1.2971615723
  H        -1.7334213729        1.0481914575       -0.5723270049
  H        -1.2710906843        1.0895444239        1.1252025003
  H        -1.8586372546       -1.2042337064       -0.3547280968
  H        -1.0987295034       -1.0558733756        1.2691998875
      13
 i =      35, E =        0.0361121232
  O         1.1225028802       -0.0073705229        0.1263216954
  C         0.4534613406        1.1441817088       -0.2332094665
  C         0.3779270699       -1.1632770349       -0.2709397369
  C        -1.0326592626       -0.7409107606        0.2355081520
  C        -1.0192173299        0.7587116472        0.1518884815
  H         0.9655344293       -2.0354065745        0.1462447845
  H         0.4025501799       -1.1749725898       -1.3396987276
  H         0.9537439341        1.9410859942        0.2612261012
  H         0.5739360863        1.2725823994       -1.3240900091
  H        -1.8448211992        1.1691433402       -0.5508833975
  H        -1.3091707548        1.1652646522        1.1479837798
  H        -1.9112215056       -1.2060923587       -0.2256061860
  H        -1.1050025440       -0.9991803781        1.2708932408
      13
 i =      40, E =        0.0345744174
  O         1.1315934010       -0.0203664868        0.1193531258
  C         0.4443902397        1.1284272363       -0.2546677428
  C         0.3568690866       -1.1420892389       -0.2954812344
  C        -1.0049746138       -0.7704508059        0.2583186955
  C        -1.0223805768        0.7841853033        0.1639306305
  H         0.9221068733       -1.9719242958        0.1472324898
  H         0.4375025767       -1.2034833982       -1.3875199856
  H         0.9307207737        1.9392058948        0.2962105044
  H         0.5527596108        1.2756571311       -1.3420001299
  H        -1.8131904426        1.2365837110       -0.4637304179
  H        -1.3210928135        1.2317627544        1.1440499642
  H        -1.9413287178       -1.2155251446       -0.1219832505
  H        -1.1194047683       -0.9698509885        1.3572546481
      13
 i =      45, E =        0.0368775945
  O         1.1440691710       -0.0388047516        0.1105228301
  C         0.4222435676        1.1182789900       -0.2720457079
  C         0.3435654104       -1.1193344196       -0.3144780619
  C        -0.9856595186       -0.7908722248        0.2885045014
  C        -1.0214928488        0.8139602598        0.1777205822
  H         0.7829345526       -1.9738156917        0.1361481922
  H         0.4422411115       -1.2232742343       -1.4428554832
  H         0.8621072070        1.9844397282        0.3095823457
  H         0.5341298270        1.2642045603       -1.3521918603
  H        -1.7312011035        1.2475173710       -0.4174801489
  H        -1.2725385273        1.2484519165        1.1214501344
  H        -1.9121208959       -1.2367943458       -0.0715078291
  H        -1.0738207104       -0.9573048970        1.3959612272
      13
 i =      50, E =        0.0351027222
  O         1.1568129130       -0.0556090651        0.0983716693
  C         0.3992728911        1.1182015883       -0.2767195762
  C         0.3347521324       -1.1034213068       -0.3348653043
  C        -0.9784627769       -0.7855249895        0.3235160230
  C        -1.0048188643        0.8253444860        0.1939885626
  H         0.6620417135       -2.0883348252        0.1298830365
  H         0.3916039218       -1.2035183323       -1.4073266647
  H         0.7589805964        1.9980370784        0.2441920038
  H         0.5123949960        1.2461325299       -1.3691100296
  H        -1.7691256655        1.2690624094       -0.5212797492
  H        -1.2070575561        1.2605822869        1.1850206870
  H        -1.8611372054       -1.2796811336       -0.0799667136
  H        -0.9639607028       -0.9701878359        1.3781532099
      13
 i =      55, E =        0.0356274150
  O         1.1681529453       -0.0642455017        0.0836783790
  C         0.3805738061        1.1169825073       -0.2772472429
  C         0.3266382575       -1.1124841844       -0.3402797514
  C        -0.9762589150       -0.7506989231        0.3474713214
  C        -0.9939110930        0.8218860942        0.2051231070
  H         0.5813297856       -2.1340563203        0.0619562125
  H         0.3055505618       -1.1450747806       -1.4209219457
  H         0.7243976322        2.0482551280        0.1732072348
  H         0.4682137685        1.2255020504       -1.3743312450
  H        -1.7537721816        1.2053780150       -0.5591982726
  H        -1.1504239536        1.2589320378        1.2403708861
  H        -1.8222200679       -1.3154304208       -0.0997288488
  H        -0.8460737330       -1.0255834276        1.4241168739
      13
 i =      60, E =        0.0370453683
  O         1.1761878466       -0.0638105440        0.0673878957
  C         0.3724866771        1.1131428360       -0.2783291172
  C         0.3124969741       -1.1373369017       -0.3367241852
  C        -0.9717162152       -0.7057944080        0.3659010378
  C        -0.9924800143        0.8069034963        0.2177685691
  H         0.5933059583       -2.1139396415       -0.0396256543
  H         0.2054235797       -1.0706439174       -1.4746535802
  H         0.7769772702        2.0993571254        0.1227695031
  H         0.3982231679        1.1991738028       -1.3730092109
  H        -1.6972304605        1.0959357705       -0.4857275640
  H        -1.1313778156        1.2402453386        1.2010893680
  H        -1.7916124105       -1.2908345409       -0.0755744407
  H        -0.7805567838       -1.0629270679        1.4290160351
      13
 i =      65, E =        0.0340982122
  O         1.1782597276       -0.0591995386        0.0484236057
  C         0.3806966851        1.1137568088       -0.2787341990
  C         0.2914737783       -1.1496717820       -0.3445041970
  C        -0.9578121401       -0.6752515982        0.3857127974
  C        -0.9832654277        0.7802707738        0.2382546657
  H         0.7156833047       -2.1601557763       -0.1087036631
  H         0.1175027824       -1.0282965988       -1.4233090979
  H         0.8455094978        2.0443849109        0.0665435265
  H         0.3231825639        1.1676444981       -1.3856585074
  H        -1.7915146839        1.0694504494       -0.4768868239
  H        -1.1843378546        1.2672885473        1.1899660598
  H        -1.8166299985       -1.2126865158       -0.0157963324
  H        -0.7919317467       -1.0313804111        1.3764979519
      13
 i =      70, E =        0.0369558425
  O         1.1722583864       -0.0557871226        0.0239940542
  C         0.3970268021        1.1106545453       -0.2842498271
  C         0.2787042018       -1.1500671754       -0.3520916579
  C        -0.9382225358       -0.6694570150        0.3995132453
  C        -0.9787284824        0.7642716569        0.2583271998
  H         0.8061483051       -2.1422583295       -0.1679223108
  H         0.0547529023       -1.0381048753       -1.3909061790
  H         0.9206454638        1.9837025575        0.0396798673
  H         0.2753318321        1.1428963462       -1.3904829189
  H        -1.8614341681        1.0657716293       -0.4433128665
  H        -1.2657704016        1.3100866604        1.2112201761
  H        -1.9065550095       -1.1175194840        0.0580823598
  H        -0.8403153309       -0.9792154398        1.4465783460
      13
 i =      75, E =        0.0377638490
  O         1.1598579000       -0.0572498231       -0.0070500899
  C         0.4103545751        1.1006672323       -0.2956199157
  C         0.2799517418       -1.1421962199       -0.3527477088
  C        -0.9269568085       -0.6903058715        0.4185766945
  C        -0.9863841523        0.7752589272        0.2789584906
  H         0.7866146783       -2.0455493058       -0.2041758966
  H         0.0238543773       -1.0793887859       -1.4597981172
  H         0.9877211282        1.9931001957        0.0556532912
  H         0.2804556539        1.1398773802       -1.3847058429
  H        -1.7828962925        1.0330197411       -0.3495741945
  H        -1.2922488372        1.2921386601        1.1817772516
  H        -1.9553988823       -1.0292382062        0.1408106599
  H        -0.8851592217       -0.9126524261        1.5460229371
      13
 i =      80, E =        0.0344170243
  O         1.1474123182       -0.0641950493       -0.0427202470
  C         0.4189184440        1.0970372528       -0.3048805373
  C         0.2782779458       -1.1198046680       -0.3631840544
  C        -0.9305314419       -0.7239053939        0.4573366219
  C        -0.9804765314        0.7980062631        0.3024170775
  H         0.7629141825       -2.0720843127       -0.1655083385
  H         0.0494257939       -1.1202740749       -1.4604258590
  H         0.9725379906        1.9776860890        0.0700483473
  H         0.3324240715        1.1618732519       -1.4011705758
  H        -1.7777053461        1.0478731785       -0.3869894906
  H        -1.2679182228        1.2763716609        1.2107009745
  H        -1.9379120314       -1.0155821480        0.1936846352
  H        -0.8831733499       -0.8485612021        1.5251854136
      13
 i =      85, E =        0.0357901428
  O         1.1419767479       -0.0730975102       -0.0794162832
  C         0.4180456231        1.1017306626       -0.3124989044
  C         0.2690039131       -1.1049988996       -0.3763371989
  C        -0.9416402436       -0.7461203570        0.4973995597
  C        -0.9635272416        0.8201797846        0.3168626388
  H         0.7275034846       -2.1242279300       -0.0809638770
  H         0.0996287015       -1.1255795224       -1.4202209591
  H         0.9198649790        1.9527053647        0.0914292527
  H         0.3945057577        1.2038230139       -1.4183415674
  H        -1.7939595179        1.0903945411       -0.4689888331
  H        -1.2119415076        1.3005799027        1.3110111524
  H        -1.9332107362       -1.1204990040        0.1955641123
  H        -0.8142022556       -0.8604419762        1.5565125643
      13
 i =      90, E =        0.0348006557
  O         1.1460416436       -0.0798694437       -0.1135699914
  C         0.4069898145        1.1089954741       -0.3218305508
  C         0.2548386712       -1.1160536340       -0.3724088064
  C        -0.9547540711       -0.7474095330        0.5253459955
  C        -0.9544786035        0.8377697431        0.3209558829
  H         0.6483544224       -2.0524999745       -0.0270338599
  H         0.1140818119       -1.1076195432       -1.4738739391
  H         0.9156697048        1.9811954390        0.1485977540
  H         0.4223064477        1.2606355537       -1.4063946709
  H        -1.6929731192        1.1059881797       -0.4059512536
  H        -1.1163187254        1.3071282666        1.3115669197
  H        -1.9014455946       -1.2706198585        0.2062827378
  H        -0.7170322558       -0.9490407817        1.6375405018
      13
 i =      95, E =        0.0358667773
  O         1.1558911635       -0.0833883388       -0.1433370460
  C         0.3993761012        1.1226262987       -0.3255601114
  C         0.2297983575       -1.1316328677       -0.3634296909
  C        -0.9621690505       -0.7359187661        0.5479695316
  C        -0.9407617100        0.8351825719        0.3265147204
  H         0.6336548306       -2.0452659798        0.0021247504
  H         0.0756431759       -1.1157440378       -1.4821953591
  H         0.9219013987        1.9758165768        0.1885474688
  H         0.3932712688        1.3286669547       -1.3998768869
  H        -1.6889800430        1.1624402421       -0.3433060204
  H        -1.0321643268        1.3308287944        1.2622996298
  H        -1.8113514013       -1.3564840568        0.2693218445
  H        -0.6616631901       -1.0321131067        1.5679443554
      13
 i =     100, E =        0.0378522467
  O         1.1643775386       -0.0840204578       -0.1706142767
  C         0.4024997752        1.1390191592       -0.3226179774
  C         0.2018666636       -1.1409835854       -0.3551061296
  C        -0.9545543237       -0.7186041203        0.5574441482
  C        -0.9233559514        0.8135772744        0.3316352628
  H         0.6806508604       -2.1316282492       -0.0040683634
  H        -0.0160225391       -1.1712445010       -1.3961513754
  H         0.9217607621        1.9264060941        0.1898423264
  H         0.3205729353        1.3926693694       -1.4037745808
  H        -1.8006812474        1.2404355527       -0.3180260629
  H        -0.9913677520        1.4002453669        1.2852187131
  H        -1.7920316746       -1.3620196444        0.3391843176
  H        -0.6298087211       -1.0694717503        1.4974560873
      13
 i =     105, E =        0.0333446566
  O         1.1656655667       -0.0828690376       -0.1997365882
  C         0.4095001330        1.1469095160       -0.3211665797
  C         0.1886111245       -1.1567195155       -0.3347163509
  C        -0.9343640033       -0.7035534410        0.5511974435
  C        -0.9224084583        0.8003289471        0.3372215437
  H         0.6642718109       -2.1163113959       -0.0789452173
  H        -0.1527748391       -1.2418939498       -1.3810479467
  H         0.9637745855        1.9375784396        0.2015360664
  H         0.2468095217        1.4267720441       -1.3804609481
  H        -1.7872110970        1.2045032931       -0.2026354035
  H        -0.9735154027        1.4004197475        1.2847100187
  H        -1.8823075995       -1.2814685960        0.3831910799
  H        -0.5837624262       -1.0504727116        1.5732108307
      13
 i =     110, E =        0.0357740608
  O         1.1584857155       -0.0829116170       -0.2335467726
  C         0.4172155548        1.1491713960       -0.3179409599
  C         0.1833296239       -1.1711941260       -0.3187674351
  C        -0.9113028303       -0.7016265618        0.5518353993
  C        -0.9224830307        0.7983464580        0.3536380884
  H         0.6316922088       -2.0985304499       -0.1392256554
  H        -0.2610625443       -1.2731015434       -1.3746694423
  H         1.0019719521        1.9689580615        0.1968114761
  H         0.2120423215        1.4244260075       -1.3570429166
  H        -1.7763121080        1.1255931113       -0.1283544226
  H        -0.9703659408        1.3184751364        1.2769064406
  H        -1.9454403154       -1.1077987651        0.4180393090
  H        -0.5861857491       -0.9320282066        1.6120667867
      13
 i =     115, E =        0.0363763808
  O         1.1455819754       -0.0870164960       -0.2712288920
  C         0.4227352152        1.1515267841       -0.3095584253
  C         0.1745560473       -1.1763360428       -0.3227329126
  C        -0.8921355514       -0.7025738309        0.5678800839
  C        -0.9075691759        0.7979460581        0.3757840538
  H         0.6546593236       -2.1864469742       -0.1281891218
  H        -0.2767379192       -1.2397506866       -1.3008792945
  H         0.9916497739        1.9524912644        0.1476921348
  H         0.2229065172        1.3996489946       -1.3694070849
  H        -1.8780841252        1.0951407755       -0.1815279466
  H        -0.9867807021        1.2589585842        1.3816905952
  H        -1.9456239217       -0.9539755004        0.4452661948
  H        -0.6381631228       -0.7856514058        1.6003110393
      13
 i =     120, E =        0.0367084278
  O         1.1310631561       -0.0956736043       -0.3089524742
  C         0.4167640769        1.1474840520       -0.3059489522
  C         0.1724254871       -1.1850637959       -0.3305569970
  C        -0.8793717163       -0.6913607150        0.5911427117
  C        -0.8969975534        0.8083360615        0.3972434523
  H         0.6427122783       -2.1856971835       -0.0955964536
  H        -0.2583562210       -1.1843849707       -1.3232408329
  H         1.0052059169        1.9558162081        0.1159372162
  H         0.2569994267        1.3696413250       -1.3788347888
  H        -1.8280725774        1.0538948640       -0.1995549931
  H        -1.0062869001        1.2120254364        1.4598048894
  H        -1.9514340901       -0.9293526699        0.4482561386
  H        -0.6680062732       -0.7193609427        1.6842956932
      13
 i =     125, E =        0.0374459217
  O         1.1186662255       -0.1083900493       -0.3416713318
  C         0.4037680599        1.1364205266       -0.3102798511
  C         0.1734149529       -1.1899528229       -0.3393524351
  C        -0.8758734102       -0.6697020278        0.6260464003
  C        -0.8882313902        0.8263086553        0.4228028380
  H         0.6059152233       -2.1090120332       -0.0749580057
  H        -0.2310935316       -1.1707374991       -1.4129348707
  H         1.0445197252        1.9666017950        0.1135094243
  H         0.2716692672        1.3578803253       -1.3695283527
  H        -1.6986786655        1.0389101363       -0.1839031316
  H        -1.0164300314        1.1912918919        1.4191380889
  H        -1.9248278359       -1.0247122826        0.4366496473
  H        -0.6646049556       -0.7579452612        1.7383838088
      13
 i =     130, E =        0.0323504271
  O         1.1105071721       -0.1232113302       -0.3665948196
  C         0.3983040889        1.1246193934       -0.3166477826
  C         0.1636247314       -1.1741609658       -0.3592709473
  C        -0.8794973861       -0.6499779451        0.6656501803
  C        -0.8676436801        0.8381941380        0.4477335271
  H         0.6352063702       -2.1325322539       -0.0515093921
  H        -0.1817092799       -1.2254193313       -1.3926148693
  H         1.0414211116        1.9055165317        0.1040852693
  H         0.2335191843        1.3806458871       -1.3735181673
  H        -1.7270969102        1.1105158917       -0.2408431746
  H        -1.0339310867        1.2912555769        1.4222931539
  H        -1.8357745187       -1.1557793058        0.4478737373
  H        -0.6360250846       -0.8708784331        1.6904429134
      13
 i =     135, E =        0.0365682398
  O         1.1068833555       -0.1358341584       -0.3855533106
  C         0.3993098372        1.1094088202       -0.3270795351
  C         0.1520185690       -1.1550421973       -0.3722203806
  C        -0.8812732213       -0.6420100830        0.6898054393
  C        -0.8580494836        0.8508471420        0.4655626280
  H         0.6558669897       -2.1299285514       -0.0552410495
  H        -0.1817901802       -1.3095239037       -1.3680799238
  H         1.0468326957        1.8444361188        0.1116735324
  H         0.1567323580        1.4212213216       -1.3708891246
  H        -1.7297305892        1.1758586868       -0.2271927330
  H        -1.0303834502        1.4612648589        1.4244948181
  H        -1.7706602885       -1.2461502685        0.4906059136
  H        -0.5605844020       -1.0057773475        1.6800960657
      13
 i =     140, E =        0.0382276514
  O         1.1071101658       -0.1433995723       -0.4032920972
  C         0.4008295161        1.0927573009       -0.3413226453
  C         0.1428880580       -1.1475550803       -0.3686328247
  C        -0.8734523868       -0.6530911030        0.7011664612
  C        -0.8662688738        0.8725954767        0.4855560119
  H         0.6234116707       -2.0390799307       -0.0819174439
  H        -0.2567924959       -1.3589821274       -1.4079626492
  H         1.0920666590        1.8365915362        0.1388149369
  H         0.0939472751        1.4462925191       -1.3401448488
  H        -1.6524009257        1.1785262417       -0.1234339070
  H        -0.9720495781        1.5550332113        1.3147787359
  H        -1.7899868777       -1.2456825184        0.5473635384
  H        -0.4600722793       -1.0591182702        1.6728940785
      13
 i =     145, E =        0.0355325612
  O         1.1093238970       -0.1464739621       -0.4234857891
  C         0.4056829325        1.0854136250       -0.3483333162
  C         0.1232101765       -1.1442599462       -0.3671410021
  C        -0.8572011599       -0.6778942491        0.7083846558
  C        -0.8659024871        0.8865045866        0.5074022213
  H         0.6314632213       -2.0535494226       -0.0732343033
  H        -0.3320679995       -1.3197822894       -1.3652514641
  H         1.0961477947        1.8144273661        0.1218932027
  H         0.0814911597        1.4439396692       -1.3329234147
  H        -1.7198388076        1.1833390331       -0.1163037392
  H        -0.8973528565        1.6091092680        1.2800835864
  H        -1.8556195757       -1.1504723811        0.6189044933
  H        -0.3826061658       -0.9865726199        1.6271950581
      13
 i =     150, E =        0.0372243830
  O         1.1101587537       -0.1470643628       -0.4462649128
  C         0.4089264279        1.0870080742       -0.3475574598
  C         0.0998431586       -1.1498492725       -0.3652535199
  C        -0.8410530329       -0.6919384815        0.7099568571
  C        -0.8589117064        0.8886544010        0.5161268801
  H         0.6339255998       -2.1295024377       -0.0705763164
  H        -0.3978968666       -1.2226627282       -1.3031382481
  H         1.0811592280        1.8034200250        0.0718450190
  H         0.1191703239        1.4182663562       -1.3668124233
  H        -1.8048867813        1.1568775222       -0.1243514385
  H        -0.8381077218        1.6230370698        1.3837728159
  H        -1.8971946932       -1.0301906060        0.7150647883
  H        -0.3237358949       -0.8800967206        1.6617057319
      13
 i =     155, E =        0.0343966815
  O         1.1063514362       -0.1481259442       -0.4678770787
  C         0.4053071642        1.0917861252       -0.3493598196
  C         0.0859881609       -1.1692135330       -0.3552863515
  C        -0.8255552852       -0.6791848333        0.7185037052
  C        -0.8541286947        0.8879301793        0.5137198130
  H         0.5430998430       -2.1258782780       -0.1399075740
  H        -0.4803394470       -1.1394117891       -1.3326587386
  H         1.1108147308        1.8583857638        0.0394708088
  H         0.1764383757        1.3791403918       -1.3892344209
  H        -1.7411889352        1.0890292008       -0.0348317848
  H        -0.8113334019        1.4833214948        1.4485390497
  H        -1.8831782328       -0.9664038378        0.8185206204
  H        -0.3148872683       -0.7917167505        1.7302150530
      13
 i =     160, E =        0.0339605797
  O         1.0967842565       -0.1534173569       -0.4834698876
  C         0.4060453073        1.1021836086       -0.3558979978
  C         0.0693166529       -1.1806457558       -0.3554646264
  C        -0.8077876230       -0.6427226254        0.7466952033
  C        -0.8333419874        0.8742597557        0.5098938365
  H         0.4566668296       -2.1730316618       -0.2422549377
  H        -0.5148967885       -1.1148333660       -1.3182666030
  H         1.1141921621        1.8938919895        0.0080796165
  H         0.1981050442        1.3549861980       -1.3933077795
  H        -1.7570261054        1.0873892033        0.0146561383
  H        -0.8214960038        1.2966464914        1.4905583529
  H        -1.8357638368       -0.9959247676        0.8897695466
  H        -0.3580461402       -0.7379241862        1.7280812116
      13
 i =     165, E =        0.0380209183
  O         1.0826280887       -0.1641145003       -0.4914976910
  C         0.4152106596        1.1145129654       -0.3663695258
  C         0.0465823614       -1.1772584156       -0.3671553771
  C        -0.7919822585       -0.6003226849        0.7802761661
  C        -0.8050039419        0.8495353535        0.5032178193
  H         0.4220435760       -2.2626068136       -0.3257308941
  H        -0.5196722837       -1.1366795756       -1.2597222960