      13
 i =       0, E =        0.0298947236
  O         0.0002092059       -0.0000826491       -0.0000463494
  C        -0.0001628677        0.0001183217       -0.0001232674
  C        -0.0005156746        0.0000211356       -0.0003134423
  C         0.0003784882       -0.0002710942        0.0003237229
  C         0.0003271052       -0.0000068267        0.0001598719
  H        -0.0001320101        0.0000080292        0.0005679771
  H        -0.0003640875        0.0000133447        0.0003762509
  H        -0.0009282086       -0.0001607586       -0.0002258562
  H        -0.0007950557        0.0006277950       -0.0002912441
  H        -0.0004421508        0.0010263248       -0.0001864830
  H        -0.0005255993        0.0008878158       -0.0001945439
  H        -0.0000936012        0.0001491619        0.0005219185
  H        -0.0003624306        0.0004101512       -0.0003909859
      13
 i =       5, E =        0.0369753957
  O         0.0001447176       -0.0000711705       -0.0000985687
  C        -0.0001720374        0.0001171023       -0.0001214445
  C        -0.0003974764       -0.0000496655       -0.0001550252
  C         0.0003300805       -0.0001376599        0.0002544714
  C         0.0002418918        0.0000214920        0.0001022987
  H        -0.0005036571        0.0000840095       -0.0000757962
  H        -0.0001314246        0.0000828790       -0.0004000746
  H        -0.0006117283        0.0005718475        0.0000212899
  H        -0.0004818628        0.0002223709       -0.0001617704
  H         0.0003277715        0.0001387525        0.0005883374
  H        -0.0002512998        0.0003676106       -0.0002662044
  H        -0.0002083174        0.0000833455        0.0004531732
  H        -0.0004659327        0.0001595846        0.0004487963
      13
 i =      10, E =        0.0401589125
  O        -0.0000121803       -0.0000416673       -0.0001937946
  C        -0.0000783369        0.0001324099       -0.0000592707
  C        -0.0000808728       -0.0000865907       -0.0000056257
  C         0.0000604816        0.0000645702        0.0002224907
  C         0.0001150764        0.0000099848        0.0000948663
  H        -0.0006420696       -0.0002126921       -0.0007594015
  H        -0.0002771154        0.0000696313       -0.0005731132
  H        -0.0001454178        0.0005951609       -0.0000715623
  H        -0.0000431302       -0.0002281768       -0.0000162941
  H         0.0005794764       -0.0007391331        0.0005152591
  H         0.0003279299       -0.0003840161       -0.0000847747
  H        -0.0000375476        0.0000679347        0.0004229997
  H         0.0002364102        0.0000583022        0.0006347166
      13
 i =      15, E =        0.0346862790
  O        -0.0001660246        0.0000011903       -0.0002580623
  C         0.0000809797        0.0001444889        0.0000324181
  C         0.0001931129       -0.0000609297       -0.0000437867
  C        -0.0002069109        0.0002283323        0.0002491842
  C         0.0000926077       -0.0001146729        0.0001443223
  H        -0.0000385959       -0.0011180367       -0.0006659217
  H        -0.0006965859        0.0002047585        0.0004000839
  H         0.0002789350       -0.0002043893       -0.0005243773
  H         0.0002734329       -0.0004195856       -0.0000780247
  H        -0.0006440192       -0.0004807986       -0.0009059345
  H         0.0004435894       -0.0004982716        0.0008354219
  H        -0.0000483731       -0.0000357266        0.0003387476
  H         0.0011629212        0.0001830830        0.0001427345
      13
 i =      20, E =        0.0346147406
  O        -0.0002243127        0.0000480526       -0.0002543945
  C         0.0001755129        0.0000119924        0.0000028279
  C         0.0002612943       -0.0001186764       -0.0000171004
  C        -0.0002481030        0.0003003388        0.0001945454
  C        -0.0000695640       -0.0001090797        0.0001054004
  H         0.0005106742       -0.0004574188       -0.0006866139
  H        -0.0006262956        0.0003316579       -0.0000334874
  H         0.0009769164       -0.0000759838       -0.0002825924
  H         0.0002932040       -0.0002967128        0.0000036935
  H        -0.0002791969       -0.0006435684       -0.0001750626
  H         0.0005040673       -0.0004578664        0.0007463825
  H        -0.0003643988       -0.0001686074        0.0003889257
  H         0.0011259426       -0.0000020599        0.0006727443
      13
 i =      25, E =        0.0356289603
  O        -0.0001669544        0.0000602197       -0.0001926915
  C         0.0001873682       -0.0001186377       -0.0000755478
  C         0.0001134212       -0.0001438999       -0.0000458139
  C        -0.0001270442        0.0001755500        0.0001777439
  C        -0.0001943178       -0.0000176230        0.0000933170
  H         0.0009243575        0.0007106713       -0.0004955934
  H        -0.0002679834        0.0003754662       -0.0006494043
  H         0.0012124228       -0.0000719665        0.0000096127
  H         0.0001217720       -0.0000368175        0.0000588005
  H         0.0003146034       -0.0004264504        0.0010961425
  H         0.0003863403       -0.0002651700       -0.0001677367
  H        -0.0004765071       -0.0001030549        0.0008290767
  H         0.0006802676        0.0001079808        0.0005939365
      13
 i =      30, E =        0.0369462837
  O        -0.0000495230        0.0000085730       -0.0001142252
  C         0.0001510139       -0.0001216879       -0.0001092995
  C        -0.0001258004        0.0000312928       -0.0002413359
  C         0.0000702197       -0.0000858131        0.0002378532
  C        -0.0000570990        0.0000294123        0.0001554815
  H         0.0012439984        0.0004523801        0.0001237948
  H         0.0000951176        0.0001477206        0.0001592943
  H         0.0004461722       -0.0008702417       -0.0001436776
  H        -0.0000552328        0.0001279118       -0.0001783727
  H        -0.0009033237        0.0008004945        0.0003446534
  H        -0.0001843534        0.0004256834       -0.0000002820
  H        -0.0004674560        0.0000001065        0.0011821134
  H         0.0001543817        0.0005290949       -0.0001831934
      13
 i =      35, E =        0.0361121232
  O         0.0000523595       -0.0000786323       -0.0000672520
  C         0.0000094220       -0.0001347514       -0.0001699519
  C        -0.0002195132        0.0001761594       -0.0002813110
  C         0.0002360515       -0.0002553217        0.0002166535
  C         0.0000046269        0.0001474959        0.0001309067
  H         0.0003816699        0.0004446998        0.0001953679
  H         0.0003182223       -0.0001823596        0.0000460039
  H        -0.0001132529       -0.0005466778        0.0001156332
  H        -0.0001760021        0.0000970970       -0.0002444983
  H        -0.0005995966        0.0010710129        0.0003923291
  H        -0.0003565650        0.0007973367        0.0002359860
  H        -0.0004545749       -0.0000508960        0.0011105538
  H        -0.0001955017        0.0004093873        0.0004518692
      13
 i =      40, E =        0.0345744174
  O         0.0001049188       -0.0001524374       -0.0000677356
  C        -0.0001631955       -0.0001367751       -0.0002013864
  C        -0.0001543072        0.0002028234       -0.0001743647
  C         0.0002353829       -0.0002550129        0.0002249573
  C        -0.0000462808        0.0002947969        0.0001049913
  H        -0.0010577867        0.0005217117       -0.0001360790
  H         0.0002494315       -0.0002797894       -0.0007586650
  H        -0.0003522644        0.0004014968        0.0003913071
  H        -0.0001904259       -0.0000458628       -0.0000907790
  H         0.0009600824        0.0001783616        0.0009639603
  H         0.0002024038        0.0003393393       -0.0003019169
  H        -0.0000108160       -0.0001234935        0.0007387245
  H         0.0000639921        0.0001668247        0.0008144271
      13
 i =      45, E =        0.0368775945
  O         0.0001182232       -0.0001724866       -0.0000959632
  C        -0.0002186089       -0.0000380889       -0.0000983342
  C        -0.0000964915        0.0002026136       -0.0001925052
  C         0.0001129467       -0.0000889357        0.0003231841
  C         0.0000921794        0.0002029106        0.0001490776
  H        -0.0012641973       -0.0006892559       -0.0000121915
  H        -0.0002134162       -0.0000236664       -0.0000199389
  H        -0.0009029220        0.0002494530       -0.0002732100
  H        -0.0001593860       -0.0001474843       -0.0001317966
  H         0.0001492666        0.0001993700       -0.0003838049
  H         0.0005883966        0.0000783263        0.0001398474
  H         0.0004621271       -0.0002924930        0.0001660967
  H         0.0007739931        0.0000450668       -0.0001235884
      13
 i =      50, E =        0.0351027222
  O         0.0001123385       -0.0001230607       -0.0001246004
  C        -0.0001955636        0.0000118521       -0.0000067577
  C        -0.0000695597        0.0000494826       -0.0001409870
  C         0.0000327185        0.0001952767        0.0002817995
  C         0.0001637056        0.0000190836        0.0001298847
  H        -0.0009490414       -0.0009998646       -0.0002613983
  H        -0.0006656114        0.0003772573        0.0003377178
  H        -0.0007699726        0.0001782218       -0.0007540534
  H        -0.0002762003       -0.0001757103       -0.0001314864
  H        -0.0004162854       -0.0000490589       -0.0010337918
  H         0.0005766143        0.0001103236        0.0008157332
  H         0.0004055629       -0.0004434165       -0.0002345039
  H         0.0011303698       -0.0003295710        0.0000944843
      13
 i =      55, E =        0.0356274150
  O         0.0000919460       -0.0000332478       -0.0001421066
  C        -0.0001356712       -0.0000363777       -0.0000105592
  C        -0.0000913528       -0.0001991908        0.0000303065
  C         0.0000185004        0.0004061095        0.0001708832
  C         0.0000290856       -0.0000764557        0.0000882366
  H        -0.0004240863        0.0001479037       -0.0009179344
  H        -0.0008790863        0.0006603913       -0.0005707381
  H         0.0001680069        0.0006761828       -0.0005047347
  H        -0.0005380398       -0.0002088933        0.0000257907
  H         0.0006760418       -0.0010352372        0.0004290950
  H         0.0004139610       -0.0001640679        0.0000017284
  H         0.0003385456       -0.0001024472       -0.0000190638
  H         0.0009233632       -0.0005672058        0.0004885630
      13
 i =      60, E =        0.0370453683
  O         0.0000504529        0.0000319530       -0.0001575106
  C         0.0000005447       -0.0000157482       -0.0000036729
  C        -0.0001716858       -0.0001963227       -0.0000107640
  C         0.0000787742        0.0003705108        0.0001815825
  C         0.0000386148       -0.0002047975        0.0001574040
  H         0.0007057237       -0.0001055951       -0.0007980046
  H        -0.0009022379        0.0006076853       -0.0000646982
  H         0.0006389926        0.0000077342       -0.0004897680
  H        -0.0007049127       -0.0002730440       -0.0000513253
  H        -0.0001012923       -0.0006854013        0.0004921680
  H        -0.0001418689       -0.0000340490       -0.0004318161
  H         0.0001228108        0.0005326896        0.0004339417
  H         0.0002224416       -0.0000048194       -0.0004576361
      13
 i =      65, E =        0.0340982122
  O        -0.0000166878        0.0000433799       -0.0001945078
  C         0.0001337046        0.0000082347       -0.0000164612
  C        -0.0001825594       -0.0000379499       -0.0001026848
  C         0.0001693367        0.0001737796        0.0001596873
  C         0.0001007596       -0.0002392525        0.0001967063
  H         0.0012503381       -0.0004226847       -0.0005379432
  H        -0.0006842615        0.0001323213        0.0007183175
  H         0.0006169404       -0.0007872159       -0.0004575176
  H        -0.0006121713       -0.0002824279       -0.0001282663
  H        -0.0012295662        0.0000506719       -0.0000920733
  H        -0.0007501497        0.0004722647        0.0002266032
  H        -0.0006181718        0.0008237961        0.0006164070
  H        -0.0003443992        0.0004589600       -0.0000850975
      13
 i =      70, E =        0.0369558425
  O        -0.0000904839        0.0000127545       -0.0002543103
  C         0.0001434525       -0.0000730565       -0.0000866653
  C        -0.0000374190        0.0000210947       -0.0000204640
  C         0.0001624889       -0.0000735426        0.0001143076
  C        -0.0000383542       -0.0000199336        0.0001743856
  H         0.0002395211        0.0008031988       -0.0005210408
  H        -0.0004628732       -0.0002696620       -0.0003153180
  H         0.0007523982       -0.0001628096       -0.0000026227
  H        -0.0002147583       -0.0001421802        0.0000501684
  H         0.0002363854       -0.0002326294        0.0008099484
  H        -0.0005689305        0.0001338424       -0.0000515646
  H        -0.0008058525        0.0008962171        0.0007410964
  H        -0.0004823104        0.0005046182        0.0011625617
      13
 i =      75, E =        0.0377638490
  O        -0.0001250933       -0.0000408352       -0.0003096939
  C         0.0001012162       -0.0000807055       -0.0001038340
  C         0.0000230674        0.0001441174       -0.0000308554
  C         0.0000309502       -0.0002840795        0.0002675232
  C        -0.0000428746        0.0001866895        0.0002106986
  H        -0.0003408501        0.0004987367       -0.0000307216
  H        -0.0000402895       -0.0004365397       -0.0005491925
  H         0.0003030461        0.0001047610        0.0001937868
  H         0.0002973842        0.0000910662       -0.0000222147
  H         0.0006659818       -0.0001788991        0.0004598042
  H         0.0000567297       -0.0003136824       -0.0002322475
  H        -0.0000369478        0.0005909370        0.0006966298
  H        -0.0002582830        0.0006966973        0.0003064791
      13
 i =      80, E =        0.0344170243
  O        -0.0000899175       -0.0000796648       -0.0003363347
  C         0.0000459384        0.0000162059       -0.0000675635
  C        -0.0000590340        0.0002213282       -0.0001460255
  C        -0.0000798505       -0.0002854060        0.0004011454
  C         0.0001432103        0.0002085374        0.0001926685
  H        -0.0001343758       -0.0007619812        0.0006861021
  H         0.0004475186       -0.0002395335        0.0004693836
  H        -0.0004875367       -0.0003431490        0.0000906272
  H         0.0005889377        0.0003015619       -0.0002322581
  H        -0.0004319530        0.0003991657       -0.0009615796
  H         0.0003456370        0.0001038086        0.0008085797
  H         0.0001677906       -0.0004328152        0.0002193361
  H         0.0003323228        0.0003229860       -0.0002722205
      13
 i =      85, E =        0.0357901428
  O        -0.0000051111       -0.0000756550       -0.0003285494
  C        -0.0000661189        0.0000555662       -0.0000809721
  C        -0.0001017773        0.0000104001       -0.0000501708
  C        -0.0001161191       -0.0001045236        0.0003059160
  C         0.0001228809        0.0001962185        0.0000683111
  H        -0.0006090805        0.0001562568        0.0006987105
  H         0.0003555010        0.0001185503       -0.0000562630
  H        -0.0002936760        0.0000434342        0.0003750481
  H         0.0004677731        0.0004563823       -0.0000136216
  H         0.0004802441        0.0002468584       -0.0001089508
  H         0.0007186555        0.0001937199        0.0006398914
  H         0.0000161351       -0.0013506980       -0.0000654113
  H         0.0008656691       -0.0005423085        0.0008491695
      13
 i =      90, E =        0.0348006557
  O         0.0000728353       -0.0000467768       -0.0002924263
  C        -0.0001087611        0.0000882652       -0.0000732358
  C        -0.0001730854       -0.0001650034        0.0000918990
  C        -0.0001111437        0.0000630481        0.0002260141
  C         0.0000757841        0.0000931170        0.0000333136
  H        -0.0005965993        0.0007158367        0.0003256610
  H        -0.0001109798        0.0001172320       -0.0006003586
  H         0.0001158057        0.0002734576        0.0005545580
  H         0.0000015116        0.0005791024        0.0001510564
  H         0.0008704357        0.0002003839        0.0008990419
  H         0.0009219232        0.0000073722       -0.0005084848
  H         0.0006555592       -0.0011826667        0.0003496214
  H         0.0007660583       -0.0009146714        0.0001581303
      13
 i =      95, E =        0.0358667773
  O         0.0000946917       -0.0000183017       -0.0002551993
  C        -0.0000167852        0.0001552257        0.0000077175
  C        -0.0002712050       -0.0000995539        0.0000594863
  C        -0.0000056965        0.0001366279        0.0001692306
  C         0.0001749887       -0.0001422445        0.0000602278
  H         0.0003289048       -0.0006465348        0.0001950542
  H        -0.0005892770       -0.0003058768        0.0005619948
  H        -0.0000402326       -0.0003979633        0.0001292327
  H        -0.0005101097        0.0006405360       -0.0000437402
  H        -0.0008478214        0.0008172837        0.0001759883
  H         0.0005603088        0.0005118716       -0.0001158587
  H         0.0007198049       -0.0003849457        0.0007034058
  H         0.0002897628       -0.0005403239       -0.0010902590
      13
 i =     100, E =        0.0378522467
  O         0.0000503137        0.0000052907       -0.0002513838
  C         0.0000580237        0.0001204994        0.0000271895
  C        -0.0002022632       -0.0001036405        0.0001268833
  C         0.0001393736        0.0001685349       -0.0000054516
  C         0.0000957234       -0.0001947305        0.0000330217
  H         0.0002493037       -0.0004769081       -0.0004049770
  H        -0.0010882186       -0.0006490785        0.0006202516
  H         0.0001604374       -0.0002670077        0.0000148168
  H        -0.0007436691        0.0004802609        0.0000619619
  H        -0.0006320498        0.0002967758        0.0006102851
  H         0.0002338312        0.0005063201        0.0002874605
  H        -0.0004502147        0.0002874457        0.0005143564
  H         0.0003892662       -0.0001505330        0.0001216775
      13
 i =     105, E =        0.0333446566
  O        -0.0000287291        0.0000104711       -0.0002861315
  C         0.0000660286        0.0000313500        0.0000076996
  C        -0.0000556065       -0.0001658715        0.0002105774
  C         0.0002121403        0.0000818537       -0.0000618774
  C        -0.0000442055       -0.0000465133        0.0000930480
  H        -0.0004322919        0.0005192250       -0.0007874075
  H        -0.0012803071       -0.0005457723       -0.0001824250
  H         0.0005085516        0.0003735062        0.0001346929
  H        -0.0005328259        0.0001327885        0.0003058269
  H         0.0005682431       -0.0007836505        0.0012007295
  H         0.0001046005       -0.0005281497       -0.0002699063
  H        -0.0009101483        0.0012331566        0.0003333960
  H         0.0003048896        0.0006145346        0.0008345254
      13
 i =     110, E =        0.0357740608
  O        -0.0000975199       -0.0000164950       -0.0003305363
  C         0.0000726016        0.0000231905        0.0000602683
  C        -0.0000668954       -0.0000795563        0.0000483262
  C         0.0001980522       -0.0000252126        0.0000878727
  C         0.0000786759       -0.0000138003        0.0001946753
  H         0.0000027708       -0.0004543891       -0.0002088677
  H        -0.0005606329        0.0000264336        0.0004919714
  H         0.0000850077        0.0000463206       -0.0002910350
  H        -0.0000945004       -0.0001482898        0.0000425643
  H        -0.0006507143       -0.0004683786       -0.0000329623
  H        -0.0000624803       -0.0007358121        0.0004213470
  H        -0.0001870536        0.0017237738        0.0003051188
  H        -0.0003499407        0.0014087136       -0.0001423007
      13
 i =     115, E =        0.0363763808
  O        -0.0001314481       -0.0000589021       -0.0003519388
  C         0.0000079328        0.0000043851        0.0000715165
  C        -0.0000671978       -0.0000466454       -0.0000830828
  C         0.0001497118        0.0000363546        0.0001838071
  C         0.0001466879        0.0000307085        0.0001966047
  H         0.0001982054       -0.0006993331        0.0003024812
  H         0.0001347600        0.0005016298        0.0004757170
  H        -0.0001063335       -0.0001784711       -0.0004683091
  H         0.0002562103       -0.0002786650       -0.0001801217
  H        -0.0005829748       -0.0002546312       -0.0005678642
  H        -0.0002062506       -0.0004109971        0.0011895943
  H         0.0000175157        0.0008905962        0.0001565978
  H        -0.0004503261        0.0010692925        0.0002831638
      13
 i =     120, E =        0.0367084278
  O        -0.0001276388       -0.0000987044       -0.0003288737
  C        -0.0001092084       -0.0000794761       -0.0000110126
  C         0.0000214801       -0.0000985310       -0.0000551591
  C         0.0000775715        0.0001645498        0.0002557897
  C         0.0000538162        0.0001529130        0.0002092749
  H        -0.0003943432        0.0006796792        0.0002300080
  H         0.0001609686        0.0003989871       -0.0008280676
  H         0.0003577751        0.0002162831       -0.0000955420
  H         0.0002920482       -0.0002291748        0.0000394634
  H         0.0013297977       -0.0004152938        0.0002225578
  H        -0.0001202342       -0.0004383525        0.0000297740
  H        -0.0000289427       -0.0004164491       -0.0000874220
  H        -0.0000912606        0.0001093253        0.0009563183
      13
 i =     125, E =        0.0374459217
  O        -0.0000955072       -0.0001309483       -0.0002643363
  C        -0.0000982726       -0.0001080528       -0.0000541112
  C        -0.0000350141        0.0000483400       -0.0001337085
  C        -0.0000105929        0.0002081209        0.0003719626
  C         0.0001416749        0.0001461017        0.0002485000
  H        -0.0000644306        0.0003105595        0.0001995673
  H         0.0003940031       -0.0002022815       -0.0004069998
  H         0.0001987358       -0.0002075587       -0.0000362763
  H        -0.0000860981        0.0000467260        0.0000519912
  H         0.0004953448        0.0002821622       -0.0002100642
  H        -0.0001130982        0.0002665388       -0.0003821473
  H         0.0005887770       -0.0011717058       -0.0000503874
  H         0.0001290580       -0.0007552555       -0.0001251857
      13
 i =     130, E =        0.0323504271
  O        -0.0000533899       -0.0001321227       -0.0001946779
  C        -0.0000063465       -0.0001158855       -0.0000682810
  C        -0.0001219168        0.0002019128       -0.0001911561
  C        -0.0000391806        0.0001374846        0.0003095774
  C         0.0001838378        0.0000862017        0.0001916752
  H         0.0004260840       -0.0004351539        0.0001576947
  H         0.0003569530       -0.0007204258        0.0005181221
  H        -0.0001353690       -0.0007458159       -0.0000756099
  H        -0.0005871828        0.0003389880       -0.0000797008
  H        -0.0005663828        0.0008306038       -0.0004952438
  H        -0.0001522697        0.0014747398        0.0003290938
  H         0.0008628245       -0.0010995820        0.0002688692
  H         0.0004474683       -0.0012366956       -0.0004145270
      13
 i =     135, E =        0.0365682398
  O        -0.0000139339       -0.0000936195       -0.0001605060
  C         0.0000114957       -0.0001601585       -0.0001245347
  C        -0.0000799674        0.0001190509       -0.0000247488
  C         0.0000205394       -0.0000056222        0.0001415503
  C        -0.0000241231        0.0001665118        0.0001560103
  H        -0.0001505171        0.0006339558       -0.0002273334
  H        -0.0004129736       -0.0007140880       -0.0002279008
  H         0.0003110215       -0.0002586500        0.0002321946
  H        -0.0007188252        0.0003398964        0.0001826725
  H         0.0006443490        0.0002465917        0.0008003573
  H         0.0002946529        0.0013171639       -0.0005687107
  H         0.0002175747       -0.0004676587        0.0004734315
  H         0.0008945138       -0.0010384880        0.0001161770
      13
 i =     140, E =        0.0382276514
  O         0.0000151352       -0.0000461439       -0.0001702214
  C         0.0000257393       -0.0001216038       -0.0001124494
  C        -0.0001179871        0.0000391076        0.0000466271
  C         0.0001209209       -0.0001908852        0.0000842529
  C        -0.0000666370        0.0001928873        0.0002104120
  H        -0.0002155874        0.0005802686       -0.0001247148
  H        -0.0007955500       -0.0000798928       -0.0001452096
  H         0.0003259742       -0.0000522820        0.0001228327
  H        -0.0003669967        0.0001012799        0.0002683674
  H         0.0002354105       -0.0000274378        0.0006649241
  H         0.0006836287        0.0005174440       -0.0010191029
  H        -0.0004942033        0.0004914815        0.0005685657
  H         0.0008394581        0.0001607716       -0.0003605832
      13
 i =     145, E =        0.0355325612
  O         0.0000195082       -0.0000133971       -0.0001993135
  C         0.0000532229       -0.0000149006       -0.0000148805
  C        -0.0002273971        0.0000105415       -0.0000107410
  C         0.0001583973       -0.0002156338        0.0000384573
  C         0.0000637861        0.0000553288        0.0001566182
  H         0.0002626338       -0.0007346393        0.0001973697
  H        -0.0005710002        0.0007330690        0.0007781454
  H        -0.0001992307       -0.0002944756       -0.0004043187
  H         0.0001365300       -0.0001347571       -0.0001734978
  H        -0.0011811196        0.0000239662       -0.0003358705
  H         0.0006351870        0.0004960545        0.0005124442
  H        -0.0005784120        0.0011203846        0.0007625505
  H         0.0006136695        0.0009652054       -0.0001922753
      13
 i =     150, E =        0.0372243830
  O        -0.0000099936       -0.0000021263       -0.0002105716
  C        -0.0000072505        0.0000311208        0.0000073942
  C        -0.0001695379       -0.0001284056        0.0000664565
  C         0.0001371834       -0.0000140152        0.0000139799
  C         0.0000402308        0.0000076561        0.0000086464
  H        -0.0004218757       -0.0003249036       -0.0002892516
  H        -0.0007134602        0.0009140855        0.0000965987
  H         0.0000769284        0.0002284040       -0.0004001312
  H         0.0005038266       -0.0003230534       -0.0003316414
  H         0.0000174445       -0.0005497903        0.0004454738
  H         0.0004200618       -0.0005221360        0.0009838086
  H        -0.0001270656        0.0009372897        0.0009670039
  H         0.0003953153        0.0009088857        0.0007209911
      13
 i =     155, E =        0.0343966815
  O        -0.0000614607       -0.0000241717       -0.0001757658
  C        -0.0000346112        0.0000640485       -0.0000420683
  C        -0.0001136020       -0.0001796142        0.0000741304
  C         0.0001537626        0.0002413278        0.0001702889
  C         0.0000914222       -0.0000463214       -0.0000312487
  H        -0.0010126808        0.0000683002       -0.0008841555
  H        -0.0006404860        0.0005299474       -0.0003112628
  H         0.0002973785        0.0005856855       -0.0002440349
  H         0.0004427912       -0.0003404626       -0.0000705893
  H         0.0006014730       -0.0004563816        0.0008600763
  H         0.0000555042       -0.0017995272        0.0002643185
  H         0.0003372619        0.0001629856        0.0008501050
  H        -0.0002611775        0.0006865161        0.0002866676
      13
 i =     160, E =        0.0339605797
  O        -0.0001113012       -0.0000748002       -0.0001066736
  C         0.0000567351        0.0001204953       -0.0000743750
  C        -0.0001973331       -0.0000159103       -0.0000789691
  C         0.0001609401        0.0003953039        0.0003137277
  C         0.0002732967       -0.0002015605       -0.0000482202
  H        -0.0004842228       -0.0009326010       -0.0009062790
  H        -0.0000211516       -0.0000601868        0.0005753321
  H        -0.0002630038        0.0000021349       -0.0003290600
  H        -0.0001044803       -0.0000584338       -0.0000723632
  H        -0.0008497629        0.0004171885        0.0000488205
  H        -0.0001801669       -0.0013488555        0.0006898340
  H         0.0004791016       -0.0006396728        0.0004208749
  H        -0.0003086150        0.0002528497       -0.0000704401
      13
 i =     165, E =        0.0380209183
  O        -0.0001437152       -0.0001157828       -0.0000449452
  C         0.0000855632        0.0000824758       -0.0001253597
  C        -0.0001923876        0.0000405165       -0.0000996329
  C         0.0001292227        0.0003351483        0.0002810126
  C         0.0001854752       -0.0002089085       -0.0000550308
  H        -0.0002790411       -0.0002602189       -0.0005494317
  H        -0.0002715417       -0.0002315527        0.0001647842