ITEM: TIMESTEP
0
ITEM: NUMBER OF ATOMS
26
ITEM: BOX BOUNDS
-3.12329 1.14648
-3.75315 2.44256
-3.26454 0.56979
ITEM: ATOMS
1 0.76561 -1.40137 -1.39663 -0.00598226 -0.00498153 -0.000252552 
2 0.09201 -2.28045 -2.29515 -0.00101291 -0.000443891 -0.00497351 
3 0.34334 -1.79607 -0.07045 -0.00547261 0.00113906 1.41925e-05 
4 -0.88885 -2.71309 -0.14165 0.00414496 -0.00206116 -0.00171809 
5 -1.24216 -2.66778 -1.61615 0.00302108 -0.00584178 -0.00676666 
6 1.14638 -2.26561 0.48279 0.0138293 0.0188858 -0.00705798 
7 0.11142 -0.85358 0.41601 0.00835806 -0.00371635 0.00826877 
8 0.74056 -3.18384 -2.38445 0.0197041 0.0158124 0.027454 
9 -0.07118 -1.79191 -3.26444 0.0256657 0.0134917 -0.00390626 
10 -1.9518 -1.84003 -1.81368 0.0184753 0.00934271 0.0188798 
11 -1.73633 -3.5973 -1.95799 0.0280652 0.0222911 0.00247028 
12 -1.68253 -2.38864 0.56969 -0.00420708 0.0213143 0.00493061 
13 -0.74975 -3.75305 0.17608 0.0176794 0.0220747 0.0297206 
14 -1.16822 1.16984 -0.1121 -0.00255267 -0.00389725 0.00187793 
15 -2.07214 0.5307 -0.98686 0.00184761 0.00194616 -0.000286777 
16 0.14902 1.38029 -0.70243 -0.00519479 0.000627327 0.00223979 
17 -0.0241 0.99451 -2.13804 -0.00302755 -0.0014879 0.000958977 
18 -1.53518 0.92444 -2.33473 -0.000806166 -0.0036401 -0.00436732 
19 0.42916 2.44246 -0.57999 0.00745478 1.12865e-05 0.0108507 
20 0.95006 0.78642 -0.23076 0.0275915 0.0277896 -0.0050807 
21 -3.12319 0.72315 -0.76092 0.0278532 0.0126536 0.0119643 
22 -1.96761 -0.55048 -0.8361 0.00595003 0.0306857 0.0111297 
23 -1.84684 0.24841 -3.17539 0.00397192 -0.0028228 0.0281021 
24 -1.94861 1.93449 -2.69179 -0.003224 0.0125109 0.00702166 
25 0.38527 -0.00976 -2.22037 0.00438099 0.0279619 0.0124675 
26 0.51143 1.62248 -2.86116 0.0113887 0.0289779 -0.00547268 
ITEM: TIMESTEP
1
ITEM: NUMBER OF ATOMS
26
ITEM: BOX BOUNDS
-3.12329 1.14648
-3.75315 2.44256
-3.26454 0.56979
ITEM: ATOMS
1 0.760685 -1.41089 -1.39432 -0.0045184 -0.0117419 0.00350497 
2 0.0908559 -2.28156 -2.30003 -0.00114982 -0.0015876 -0.00470572 
3 0.337746 -1.79493 -0.0704987 -0.00554578 0.00109658 -6.68603e-05 
4 -0.884872 -2.71508 -0.143225 0.0037116 -0.00172916 -0.00131454 
5 -1.23914 -2.67358 -1.62301 0.00329981 -0.00547334 -0.00671669 
6 1.16322 -2.24721 0.475721 0.0186536 0.0176359 -0.00724947 
7 0.118673 -0.85821 0.427511 0.00586802 -0.00478517 0.0142182 
8 0.759065 -3.1662 -2.35849 0.0170944 0.0184465 0.0234599 
9 -0.0442008 -1.77877 -3.26897 0.0279369 0.0121606 -0.00486054 
10 -1.93328 -1.84434 -1.80354 0.0171225 -0.0133859 0.00365246 
11 -1.70651 -3.5738 -1.95616 0.0286981 0.0203319 -0.000529474 
12 -1.68593 -2.36647 0.571634 -0.00141556 0.0220802 -0.00236992 
13 -0.728757 -3.731 0.205307 0.0239273 0.0204423 0.0286866 
14 -1.17058 1.16613 -0.109802 -0.00212978 -0.00350821 0.00273321 
15 -2.07017 0.532369 -0.987507 0.00225625 0.00177047 -0.000973474 
16 0.14364 1.38124 -0.700292 -0.00538494 0.0013188 0.00203659 
17 -0.0273678 0.99331 -2.13726 -0.00362749 0.000164482 0.000454994 
18 -1.53642 0.921248 -2.33983 -0.00160068 -0.00250835 -0.00553074 
19 0.435647 2.44214 -0.569054 0.0046385 -0.000763574 0.0105875 
20 0.976369 0.814677 -0.234312 0.0235215 0.027868 -0.00196218 
21 -3.09538 0.739005 -0.748458 0.0251164 0.0190635 0.0129899 
22 -1.96162 -0.506204 -0.815272 0.00615424 0.0485988 0.0277249 
23 -1.84122 0.246271 -3.1438 0.00604766 -0.00339016 0.0315462 
24 -1.94895 1.94212 -2.68084 0.00260371 0.00197128 0.0143623 
25 0.373725 0.0833492 -2.24749 -0.0132014 0.111034 -0.0462414 
26 0.522564 1.65167 -2.86644 0.00858102 0.0275564 -0.00264963 
ITEM: TIMESTEP
2
ITEM: NUMBER OF ATOMS
26
ITEM: BOX BOUNDS
-3.12329 1.14648
-3.75315 2.44256
-3.26454 0.56979
ITEM: ATOMS
1 0.756573 -1.42485 -1.38962 -0.00405457 -0.0147575 0.00510245 
2 0.0897104 -2.28363 -2.30456 -0.00101807 -0.00235677 -0.00429677 
3 0.332248 -1.79388 -0.0705837 -0.00527017 0.000965614 9.51465e-06 
4 -0.881427 -2.71655 -0.144279 0.00315526 -0.00108381 -0.00073967 
5 -1.23556 -2.67873 -1.62958 0.00415071 -0.00470712 -0.00626152 
6 1.18369 -2.23034 0.468291 0.0206063 0.0159606 -0.00793265 
7 0.123156 -0.86315 0.444446 0.00296349 -0.00464077 0.0188305 
8 0.774749 -3.14695 -2.33753 0.0143101 0.0187728 0.0176381 
9 -0.0153062 -1.76759 -3.27416 0.029423 0.00967853 -0.00504553 
10 -1.91755 -1.8668 -1.80638 0.0121901 -0.0252985 -0.00683245 
11 -1.67893 -3.55664 -1.95905 0.0243855 0.0104485 -0.00647021 
12 -1.68536 -2.34448 0.56495 0.00291657 0.0211422 -0.0114097 
13 -0.701895 -3.71217 0.233453 0.0292051 0.0163303 0.0274473 
14 -1.17248 1.16282 -0.106634 -0.00163515 -0.00307045 0.00358967 
15 -2.06763 0.534241 -0.988807 0.00290987 0.00241077 -0.0015433 
16 0.13825 1.38293 -0.698357 -0.00523022 0.0020164 0.00185138 
17 -0.031355 0.994839 -2.13713 -0.00462404 0.00408039 -0.000181133 
18 -1.53838 0.919423 -2.34579 -0.00221357 -0.00108448 -0.00602636 
19 0.438437 2.44093 -0.558815 0.000277097 -0.00146268 0.00955689 
20 0.997103 0.842156 -0.234684 0.0167057 0.0263534 0.00116549 
21 -3.07296 0.761277 -0.73494 0.0180477 0.0252912 0.0138117 
22 -1.9553 -0.453282 -0.78065 0.00664664 0.0470545 0.0386164 
23 -1.83474 0.24163 -3.1123 0.00567341 -0.00769718 0.0280943 
24 -1.9434 1.93843 -2.66307 0.00765014 -0.00825081 0.0198743 
25 0.358867 0.212308 -2.31285 -0.00515668 0.112665 -0.074897 
26 0.528592 1.67759 -2.86646 0.00147058 0.0237706 0.00439147 
ITEM: TIMESTEP
3
ITEM: NUMBER OF ATOMS
26
ITEM: BOX BOUNDS
-3.12329 1.14648
-3.75315 2.44256
-3.26454 0.56979
ITEM: ATOMS
1 0.752576 -1.44041 -1.38411 -0.00403175 -0.0158295 0.00564666 
2 0.0888197 -2.28628 -2.30862 -0.000664507 -0.00281664 -0.00379591 
3 0.327206 -1.793 -0.0704797 -0.00465385 0.000746716 0.000341957 
4 -0.878561 -2.71725 -0.144705 0.00264415 -0.000301497 -0.00012981 
5 -1.23084 -2.683 -1.63553 0.00544889 -0.00391066 -0.00554826 
6 1.20444 -2.21529 0.459856 0.0191598 0.0140314 -0.00923383 
7 0.1246 -0.867492 0.465172 -4.6486e-05 -0.00395236 0.0215688 
8 0.787685 -3.12866 -2.32322 0.0117438 0.016505 0.0104344 
9 0.0146452 -1.75941 -3.27906 0.0299326 0.00627177 -0.0042757 
10 -1.9089 -1.89494 -1.81721 0.0033567 -0.0267009 -0.013616 
11 -1.65774 -3.55291 -1.9691 0.0172355 -0.00459367 -0.013965 
12 -1.6801 -2.32418 0.548815 0.00700818 0.0190568 -0.0202288 
13 -0.670347 -3.69834 0.260202 0.0330638 0.011269 0.0256688 
14 -1.17385 1.15999 -0.102622 -0.00107534 -0.00256354 0.00439695 
15 -2.06435 0.537191 -0.990594 0.00362463 0.00377706 -0.0018837 
16 0.13318 1.38528 -0.696589 -0.00478813 0.00260309 0.00168999 
17 -0.0366159 1.00147 -2.13763 -0.00606416 0.00964549 -0.000678144 
18 -1.54084 0.919079 -2.35189 -0.00254833 0.000250099 -0.0058414 
19 0.436201 2.43921 -0.54994 -0.00511158 -0.00152075 0.00799974 
20 1.00978 0.867384 -0.231981 0.00790447 0.0234374 0.0041376 
21 -3.05928 0.789588 -0.720834 0.00902601 0.030863 0.0138178 
22 -1.94833 -0.412095 -0.738039 0.0071628 0.0292812 0.0448569 
23 -1.82987 0.230876 -3.08761 0.00323604 -0.0148048 0.0190428 
24 -1.93365 1.92561 -2.64109 0.010313 -0.0148405 0.0222326 
25 0.363412 0.30868 -2.39728 0.0192385 0.0681661 -0.0929185 
26 0.525505 1.69921 -2.85766 -0.00872849 0.0204055 0.0138663 
ITEM: TIMESTEP
4
ITEM: NUMBER OF ATOMS
26
ITEM: BOX BOUNDS
-3.12329 1.14648
-3.75315 2.44256
-3.26454 0.56979
ITEM: ATOMS
1 0.74851 -1.45651 -1.37833 -0.00411517 -0.0161053 0.00579769 
2 0.0883813 -2.28926 -2.31215 -0.000132594 -0.00306795 -0.00324319 
3 0.322941 -1.79238 -0.0698998 -0.00376478 0.000477119 0.000959487 
4 -0.876139 -2.71715 -0.144539 0.00234445 0.000410189 0.000379826 
5 -1.22466 -2.68655 -1.64068 0.00688869 -0.00338977 -0.00478818 
6 1.22201 -2.20228 0.449823 0.0146078 0.0118199 -0.0109093 
7 0.123063 -0.871055 0.487584 -0.00284155 -0.00336809 0.0220809 
8 0.798236 -3.11394 -2.31666 0.00953967 0.0118435 0.00241619 
9 0.044559 -1.75505 -3.28271 0.029247 0.00226076 -0.00269788 
10 -1.91084 -1.9202 -1.83361 -0.00787881 -0.021798 -0.0185129 
11 -1.64446 -3.56582 -1.98698 0.00997996 -0.020405 -0.0210325 
12 -1.67134 -2.30637 0.524493 0.00911853 0.0165433 -0.0269133 
13 -0.635768 -3.68963 0.284791 0.035038 0.00689174 0.0229048 
14 -1.17463 1.1577 -0.0978397 -0.000450249 -0.00197938 0.00511608 
15 -2.06038 0.541795 -0.992574 0.00419991 0.00545482 -0.00184866 
16 0.128674 1.38813 -0.694977 -0.00417194 0.00302465 0.00151862 
17 -0.0434833 1.01413 -2.13849 -0.00754467 0.015191 -0.00100748 
18 -1.54348 0.919923 -2.35747 -0.00256381 0.00113641 -0.00511849 
19 0.428214 2.43789 -0.542816 -0.0109005 -0.000482366 0.00619933 
20 1.01291 0.889031 -0.226409 -0.00172831 0.0192367 0.00690299 
21 -3.05491 0.823003 -0.707305 0.000841042 0.0351772 0.0123337 
22 -1.94098 -0.39472 -0.690936 0.00699727 0.00435934 0.0476655 
23 -1.82827 0.21202 -3.07421 -0.000256983 -0.0226064 0.00715058 
24 -1.92278 1.90875 -2.6186 0.0095699 -0.0157252 0.0207888 
25 0.397344 0.348641 -2.49869 0.0475646 0.0139798 -0.108347 
26 0.511135 1.7184 -2.83873 -0.0198904 0.0201139 0.0234058 
ITEM: TIMESTEP
5
ITEM: NUMBER OF ATOMS
26
ITEM: BOX BOUNDS
-3.12329 1.14648
-3.75315 2.44256
-3.26454 0.56979
ITEM: ATOMS
1 0.744346 -1.47262 -1.37252 -0.00419296 -0.015915 0.0057418 
2 0.0885545 -2.29241 -2.31511 0.00054285 -0.00322033 -0.00266028 
3 0.319676 -1.79205 -0.0685607 -0.00272525 0.000198977 0.00183128 
4 -0.873872 -2.71643 -0.143945 0.00236754 0.000881618 0.000684335 
5 -1.21707 -2.68978 -1.64511 0.00808637 -0.00333845 -0.00421252 
6 1.23365 -2.19165 0.438037 0.00799856 0.00913911 -0.0123906 
7 0.118917 -0.874228 0.509334 -0.00514164 -0.0032823 0.0202689 
8 0.806764 -3.10497 -2.31838 0.00756535 0.0054052 -0.005827 
9 0.0731392 -1.75489 -3.28446 0.0272151 -0.00190518 -0.000712367 
10 -1.92465 -1.93854 -1.85423 -0.0188646 -0.0148337 -0.0220131 
11 -1.63778 -3.59372 -2.01117 0.00517864 -0.0323677 -0.0256103 
12 -1.66186 -2.29109 0.494988 0.00809172 0.0142073 -0.0301329 
13 -0.600271 -3.68456 0.306011 0.0347385 0.00442287 0.0188279 
14 -1.17475 1.15603 -0.0923901 0.0002404 -0.00132506 0.00572288 
15 -2.05595 0.548101 -0.994291 0.00447857 0.00691423 -0.00127872 
16 0.124836 1.39133 -0.693552 -0.00353663 0.00328984 0.00129829 
17 -0.0517052 1.03185 -2.13964 -0.00842287 0.019095 -0.00158272 
18 -1.54597 0.921352 -2.36212 -0.00230423 0.00134074 -0.00410088 
19 0.4144 2.43825 -0.537542 -0.0164735 0.00181853 0.00440493 
20 1.00632 0.905857 -0.218175 -0.0108627 0.0138715 0.0094813 
21 -3.0576 0.859942 -0.696167 -0.00415557 0.0376211 0.00887203 
22 -1.93433 -0.403377 -0.642708 0.00539123 -0.0185089 0.0463907 
23 -1.83038 0.185663 -3.07331 -0.00351537 -0.0284009 -0.00427513 
24 -1.91451 1.89416 -2.59951 0.00528095 -0.0107274 0.0157262 
25 0.458541 0.336639 -2.61398 0.0681055 -0.0272326 -0.116268 
26 0.485725 1.73944 -2.81085 -0.029775 0.0246026 0.0306882 
ITEM: TIMESTEP
6
ITEM: NUMBER OF ATOMS
26
ITEM: BOX BOUNDS
-3.12329 1.14648
-3.75315 2.44256
-3.26454 0.56979
ITEM: ATOMS
1 0.740124 -1.48834 -1.36684 -0.0042102 -0.0153693 0.00554322 
2 0.089467 -2.2957 -2.31747 0.00133055 -0.00339576 -0.00205773 
3 0.31749 -1.79199 -0.0662372 -0.00168669 -6.23473e-05 0.00287863 
4 -0.871403 -2.71539 -0.14317 0.00273173 0.00103359 0.000727375 
5 -1.20849 -2.69322 -1.6491 0.00870103 -0.00381581 -0.00401295 
6 1.238 -2.184 0.425042 0.000860158 0.00574096 -0.0129533 
7 0.11278 -0.87762 0.528122 -0.006756 -0.00371915 0.0163519 
8 0.813367 -3.10313 -2.32832 0.00548765 -0.00190829 -0.0137344 
9 0.0989892 -1.75886 -3.28414 0.0238051 -0.00572747 0.00113944 
10 -1.94857 -1.94987 -1.87763 -0.0266621 -0.00931101 -0.0237761 
11 -1.63411 -3.63056 -2.0382 0.00450106 -0.0370627 -0.0261561 
12 -1.65516 -2.27795 0.464227 0.00372879 0.0122792 -0.029469 
13 -0.566291 -3.68078 0.322447 0.0319869 0.00431097 0.0134329 
14 -1.17415 1.15505 -0.0863939 0.000990099 -0.000620408 0.00620764 
15 -2.05142 0.555624 -0.995132 0.00438879 0.00771185 -7.22281e-05 
16 0.121601 1.39471 -0.69238 -0.00303755 0.00343644 0.00101273 
17 -0.060329 1.05232 -2.14165 -0.00812741 0.0204519 -0.0029846 
18 -1.54809 0.922605 -2.36568 -0.00188723 0.000811508 -0.00306156 
19 0.395267 2.44153 -0.534006 -0.0213089 0.00515277 0.00277614 
20 0.991186 0.916774 -0.207447 -0.0182941 0.00756676 0.0118782 
21 -3.06322 0.898245 -0.689561 -0.00472256 0.0377534 0.0033863 
22 -1.93019 -0.431738 -0.598155 0.00182984 -0.0322508 0.0396389 
23 -1.8353 0.155218 -3.08276 -0.00538037 -0.0297501 -0.0123544 
24 -1.91221 1.8873 -2.58715 -0.00175859 -0.00164007 0.00796458 
25 0.533555 0.294175 -2.73123 0.0719031 -0.0437077 -0.108545 
26 0.451585 1.76761 -2.77735 -0.0368624 0.0342233 0.0341032 
ITEM: TIMESTEP
7
ITEM: NUMBER OF ATOMS
26
ITEM: BOX BOUNDS
-3.12329 1.14648
-3.75315 2.44256
-3.26454 0.56979
ITEM: ATOMS
1 0.735926 -1.50336 -1.36143 -0.00412697 -0.0145287 0.0052377 
2 0.0912156 -2.2992 -2.31923 0.00219745 -0.00371214 -0.00144819 
3 0.316303 -1.79217 -0.0628034 -0.000794164 -0.000308383 0.00399334 
4 -0.868409 -2.71436 -0.14249 0.00334846 0.000900464 0.000504487 
5 -1.19966 -2.69741 -1.65313 0.00854005 -0.00474653 -0.00428092 
6 1.23537 -2.18017 0.412131 -0.00522201 0.00143655 -0.0119397 
7 0.105405 -0.881666 0.542038 -0.0076129 -0.00435092 0.010867 
8 0.81774 -3.10878 -2.34585 0.00291654 -0.00908499 -0.0207916 
9 0.120749 -1.76635 -3.28218 0.0191318 -0.00873283 0.00234206 
10 -1.97798 -1.95716 -1.90179 -0.0289597 -0.00752435 -0.0233024 
11 -1.62878 -3.66784 -2.06348 0.00829381 -0.0333202 -0.0221504 
12 -1.65441 -2.26654 0.43605 -0.00312274 0.0104796 -0.0254444 
13 -0.536297 -3.67594 0.332877 0.0269358 0.00611338 0.00712034 
14 -1.17277 1.15479 -0.0799748 0.00178143 0.000108299 0.0065719 
15 -2.04717 0.563524 -0.994435 0.00395535 0.00763112 0.00173286 
16 0.118761 1.3982 -0.691527 -0.00278254 0.00350954 0.000678256 
17 -0.06796 1.07276 -2.14561 -0.00645418 0.0192304 -0.00550904 
18 -1.54974 0.922975 -2.36825 -0.00146826 -0.000297409 -0.00223076 
19 0.371782 2.44855 -0.531989 -0.0250141 0.00890493 0.00136662 
20 0.969735 0.920991 -0.194418 -0.0232289 0.00071955 0.0139967 
21 -3.06705 0.935449 -0.689394 -0.00103434 0.0354979 -0.00360435 
22 -1.93067 -0.467878 -0.563431 -0.003746 -0.033293 0.0267523 
23 -1.84114 0.126163 -3.09801 -0.00518245 -0.0253521 -0.0153887 
24 -1.91803 1.89088 -2.58358 -0.0100195 0.00830651 -0.00111188 
25 0.602348 0.249224 -2.83107 0.0559711 -0.0335154 -0.0812774 
26 0.412 1.80788 -2.74264 -0.0408317 0.0479942 0.0332767 
ITEM: TIMESTEP
8
ITEM: NUMBER OF ATOMS
26
ITEM: BOX BOUNDS
-3.12329 1.14648
-3.75315 2.44256
-3.26454 0.56979
ITEM: ATOMS
1 0.73187 -1.5174 -1.35637 -0.0039112 -0.0134453 0.00485521 
2 0.0938619 -2.30312 -2.32037 0.00310398 -0.00425989 -0.000858996 
3 0.315902 -1.7926 -0.0582506 -0.000151057 -0.000566419 0.00506156 
4 -0.864706 -2.71359 -0.142161 0.0040387 0.000617916 5.31044e-05 
5 -1.19141 -2.70272 -1.65767 0.00762318 -0.00594712 -0.00496842 
6 1.22756 -2.18112 0.401163 -0.00905475 -0.00379233 -0.0089622 
7 0.097554 -0.886321 0.549856 -0.00776308 -0.00463601 0.00458541 
8 0.8192 -3.1213 -2.3699 -0.000427231 -0.0151907 -0.0265392 
9 0.137253 -1.77632 -3.27945 0.013467 -0.0104995 0.00257465 
10 -2.00649 -1.96492 -1.92424 -0.0248513 -0.0101861 -0.0204031 
11 -1.61752 -3.6972 -2.0825 0.0155409 -0.0225894 -0.0143149 
12 -1.66141 -2.25699 0.413338 -0.010797 0.00813006 -0.0192909 
13 -0.512419 -3.66856 0.336687 0.0201012 0.00865915 0.000620317 
14 -1.17059 1.15526 -0.0732501 0.00258634 0.00083342 0.00682526 
15 -2.04351 0.570886 -0.991666 0.00328298 0.0067398 0.00392046 
16 0.116036 1.40173 -0.691024 -0.00281104 0.00355756 0.000338153 
17 -0.0732374 1.09078 -2.15267 -0.00367079 0.0161568 -0.00894351 
18 -1.55102 0.92201 -2.37014 -0.00119599 -0.00165605 -0.0017351 
19 0.345239 2.45934 -0.531272 -0.0273278 0.0122117 0.000146539 
20 0.944729 0.918213 -0.179453 -0.0254473 -0.00608753 0.0155832 
21 -3.06528 0.969241 -0.696769 0.00544153 0.0312508 -0.0110968 
22 -1.93769 -0.498324 -0.54465 -0.0108544 -0.0222356 0.00873066 
23 -1.84567 0.104514 -3.11354 -0.00293568 -0.0155785 -0.0132512 
24 -1.93225 1.90391 -2.58937 -0.017635 0.0154386 -0.00997763 
25 0.645498 0.227145 -2.89378 0.0243138 -0.00285543 -0.0379979 
26 0.369922 1.8636 -2.7108 -0.0425229 0.0636723 0.0291792 
ITEM: TIMESTEP
9
ITEM: NUMBER OF ATOMS
26
ITEM: BOX BOUNDS
-3.12329 1.14648
-3.75315 2.44256
-3.26454 0.56979
ITEM: ATOMS
1 0.728103 -1.53025 -1.35172 -0.00353957 -0.0121726 0.00442522 
2 0.0974236 -2.30772 -2.32094 0.00400054 -0.00508316 -0.000338388 
3 0.316001 -1.79331 -0.0526803 0.000205703 -0.000880243 0.00598817 
4 -0.860331 -2.71313 -0.142384 0.00457768 0.000376384 -0.000564637 
5 -1.18442 -2.7093 -1.66307 0.00618511 -0.00717543 -0.00588979 
6 1.21726 -2.18775 0.394206 -0.010174 -0.00971544 -0.00402992 
7 0.0898788 -0.890938 0.551208 -0.00735379 -0.0040301 -0.00163957 
8 0.816885 -3.13917 -2.39893 -0.00457013 -0.0195379 -0.0305932 
9 0.147683 -1.78735 -3.27703 0.00720848 -0.0107104 0.00182004 
10 -2.02768 -1.97753 -1.94259 -0.0152294 -0.0164072 -0.0154568 
11 -1.5977 -3.71302 -2.09211 0.0242199 -0.0085097 -0.00443593 
12 -1.676 -2.25028 0.397468 -0.0172985 0.00452211 -0.0125801 
13 -0.496095 -3.65862 0.334118 0.0122723 0.0104364 -0.005214 
14 -1.1676 1.15645 -0.0663243 0.00336956 0.00152775 0.00698393 
15 -2.04061 0.577004 -0.986594 0.00252315 0.00536204 0.00613083 
16 0.113139 1.40531 -0.69085 -0.00309899 0.00362428 4.88464e-05 
17 -0.0753016 1.10507 -2.1635 -0.000437468 0.012496 -0.0126321 
18 -1.55214 0.919663 -2.37172 -0.00116945 -0.00284999 -0.00157212 
19 0.317127 2.47297 -0.531696 -0.0281037 0.0141993 -0.000948256 
20 0.918841 0.908816 -0.163252 -0.0252842 -0.0121289 0.016236 
21 -3.05616 0.99795 -0.711588 0.0124318 0.0258312 -0.0178665 
22 -1.95238 -0.512349 -0.545969 -0.018576 -0.00356057 -0.0117043 
23 -1.84702 0.0950062 -3.12452 0.000683675 -0.00245424 -0.00734074 
24 -1.9533 1.92176 -2.60354 -0.0228963 0.0167943 -0.0172682 
25 0.650975 0.243513 -2.90706 -0.0135604 0.0364184 0.0114209 
26 0.326954 1.93523 -2.68428 -0.0434333 0.0778763 0.0237079 
ITEM: TIMESTEP
10
ITEM: NUMBER OF ATOMS
26
ITEM: BOX BOUNDS
-3.12329 1.14648
-3.75315 2.44256
-3.26454 0.56979
ITEM: ATOMS
1 0.724791 -1.54175 -1.34752 -0.0029993 -0.0107661 0.00397579 
2 0.101863 -2.31329 -2.32105 0.00482628 -0.00617042 4.78181e-05 
3 0.316313 -1.79436 -0.0462742 0.000312826 -0.00129703 0.00671606 
4 -0.855551 -2.71283 -0.14329 0.00475823 0.000350781 -0.001279 
5 -1.17904 -2.71707 -1.66945 0.00461149 -0.00819498 -0.00676997 
6 1.20721 -2.20055 0.393103 -0.00896046 -0.0158296 0.0024304 
7 0.0828464 -0.894382 0.546577 -0.00657744 -0.00220544 -0.00704612 
8 0.81006 -3.16037 -2.43108 -0.00921356 -0.0218041 -0.0326874 
9 0.15167 -1.79774 -3.27581 0.000783098 -0.00930078 0.00039017 
10 -2.03695 -1.99773 -1.95515 -0.00262114 -0.0240952 -0.00941753 
11 -1.56908 -3.71422 -2.09137 0.0319515 0.00419453 0.00517019 
12 -1.696 -2.24795 0.388178 -0.0208944 -0.000678587 -0.00681 
13 -0.487875 -3.64768 0.326259 0.00431659 0.010086 -0.00966712 
14 -1.16385 1.15832 -0.0592823 0.00409342 0.00216415 0.00707006 
15 -2.03846 0.58161 -0.979404 0.00183401 0.00397435 0.00795834 
16 0.109838 1.40898 -0.690926 -0.00357653 0.00373437 -0.000138051 
17 -0.0741123 1.11577 -2.17793 0.00238135 0.00972264 -0.0157082 
18 -1.55336 0.91631 -2.37328 -0.00140826 -0.00350928 -0.0016292 
19 0.289031 2.48774 -0.533169 -0.0272894 0.0142508 -0.00195688 
20 0.89416 0.893955 -0.146981 -0.0234411 -0.0166323 0.0154848 
21 -3.04042 1.0209 -0.732502 0.0175552 0.0202863 -0.0228104 
22 -1.97484 -0.505445 -0.568059 -0.0258667 0.0158223 -0.030876 
23 -1.8443 0.0996056 -3.12822 0.0045658 0.0109185 -0.000108874 
24 -1.97805 1.9375 -2.62391 -0.0247291 0.0110869 -0.022042 
25 0.618377 0.299981 -2.87094 -0.0457636 0.0704236 0.0544748 
26 0.283055 2.01935 -2.66338 -0.0449024 0.0865772 0.0188578 
ITEM: TIMESTEP
11
ITEM: NUMBER OF ATOMS
26
ITEM: BOX BOUNDS
-3.12329 1.14648
-3.75315 2.44256
-3.26454 0.56979
ITEM: ATOMS
1 0.722105 -1.55178 -1.34377 -0.00228917 -0.00928257 0.00353124 
2 0.107076 -2.32006 -2.32085 0.00551175 -0.00745546 0.000228852 
3 0.316626 -1.7959 -0.0392482 0.000266969 -0.00185361 0.00723473 
4 -0.850815 -2.71242 -0.144942 0.00445359 0.000630183 -0.00202538 
5 -1.17519 -2.72569 -1.67661 0.00332573 -0.00884023 -0.00732613 
6 1.19934 -2.21941 0.399067 -0.00649321 -0.0214035 0.00965733 
7 0.0767239 -0.895349 0.537116 -0.00561075 0.000787065 -0.0111036 
8 0.798458 -3.18277 -2.46431 -0.0137565 -0.0220754 -0.0327249 
9 0.14925 -1.80595 -3.27625 -0.00544852 -0.00656765 -0.00113707 
10 -2.03292 -2.02572 -1.96143 0.00952153 -0.0306586 -0.00358751 
11 -1.53379 -3.70463 -2.08177 0.0367374 0.0111612 0.0123801 
12 -1.71779 -2.25163 0.383848 -0.0206118 -0.00729967 -0.00299499 
13 -0.487462 -3.63845 0.314784 -0.00304436 0.00685157 -0.0123835 
14 -1.15941 1.16078 -0.0521842 0.00472282 0.00271465 0.00711071 
15 -2.03694 0.584953 -0.970678 0.00134024 0.00305243 0.00907172 
16 0.105986 1.41278 -0.691126 -0.00415249 0.00388327 -0.000194198 
17 -0.0705389 1.12452 -2.19491 0.00396185 0.00910026 -0.0173915 
18 -1.55495 0.912644 -2.37497 -0.00184443 -0.00342862 -0.00173462 
19 0.262548 2.50148 -0.53561 -0.0249105 0.0122165 -0.00284225 
20 0.871958 0.875551 -0.132282 -0.020702 -0.0189194 0.0129259 
21 -3.02105 1.03852 -0.757209 0.0190266 0.0156196 -0.0252417 
22 -2.00412 -0.480705 -0.607721 -0.0319673 0.0289938 -0.045421 
23 -1.83788 0.116843 -3.12474 0.0075341 0.0212846 0.00571518 
24 -2.00275 1.94393 -2.64762 -0.0230205 -0.000829266 -0.023971 
25 0.559448 0.38436 -2.79811 -0.061791 0.0874336 0.0805723 
26 0.237149 2.10838 -2.64657 -0.0473727 0.0861895 0.0158532 
ITEM: TIMESTEP
12
ITEM: NUMBER OF ATOMS
26
ITEM: BOX BOUNDS
-3.12329 1.14648
-3.75315 2.44256
-3.26454 0.56979
ITEM: ATOMS
1 0.720212 -1.56031 -1.34045 -0.00141933 -0.00778043 0.00311105 
2 0.112887 -2.3282 -2.32059 0.00598582 -0.00882865 0.000147883 
3 0.316847 -1.79807 -0.0318048 0.00019258 -0.00256393 0.0075756 
4 -0.846644 -2.71157 -0.147341 0.00365621 0.00117812 -0.00275301 
5 -1.17239 -2.73475 -1.6841 0.00266361 -0.00906439 -0.0073538 
6 1.19423 -2.24336 0.412418 -0.00418757 -0.0256003 0.0167148 
7 0.0716249 -0.892808 0.52437 -0.00456737 0.00446436 -0.0135765 
8 0.782547 -3.20452 -2.49653 -0.0174109 -0.0208015 -0.030815 
9 0.140773 -1.81088 -3.27809 -0.0112075 -0.00309146 -0.00207087 
10 -2.01791 -2.05905 -1.96233 0.0178556 -0.0338214 0.000749638 
11 -1.4956 -3.6919 -2.06661 0.0375369 0.00974344 0.0159214 
12 -1.73723 -2.26255 0.382188 -0.0165169 -0.0147572 -0.00139785 
13 -0.493963 -3.63398 0.301492 -0.00939117 0.000853005 -0.0134778 
14 -1.1544 1.16375 -0.0450608 0.0052295 0.00315079 0.00713554 
15 -2.03578 0.587715 -0.961261 0.00109593 0.00291583 0.00930451 
16 0.101533 1.41675 -0.691314 -0.00474209 0.00404116 -0.000129375 
17 -0.0661886 1.13397 -2.21272 0.00376686 0.0112769 -0.0172608 
18 -1.55705 0.909453 -2.37675 -0.0023389 -0.00263284 -0.00171806 
19 0.23921 2.51217 -0.538853 -0.0210654 0.00849561 -0.00346576 
20 0.852756 0.856116 -0.121129 -0.0176597 -0.0185693 0.00837733 
21 -3.00237 1.05214 -0.782986 0.0161709 0.012536 -0.0250267 
22 -2.03877 -0.447457 -0.658901 -0.0366229 0.0314673 -0.0534131 
23 -1.82923 0.142175 -3.11679 0.00873469 0.026186 0.00797973 
24 -2.02409 1.93584 -2.67185 -0.0186874 -0.0161544 -0.0234069 
25 0.494795 0.474849 -2.70979 -0.0558199 0.0813332 0.0847973 
26 0.18831 2.19173 -2.63167 -0.0501392 0.0750297 0.0146847 
ITEM: TIMESTEP
13
ITEM: NUMBER OF ATOMS
26
ITEM: BOX BOUNDS
-3.12329 1.14648
-3.75315 2.44256
-3.26454 0.56979
ITEM: ATOMS
1 0.719266 -1.56734 -1.33755 -0.000410275 -0.00631937 0.00272965 
2 0.119048 -2.33772 -2.32055 0.00618609 -0.0101561 -0.000218394 
3 0.317012 -1.80103 -0.024097 0.000201086 -0.00341002 0.00779498 
4 -0.843502 -2.71007 -0.150448 0.0024768 0.00183952 -0.00343105 
5 -1.16987 -2.74382 -1.69132 0.00277739 -0.00895437 -0.00678653 
6 1.19097 -2.27061 0.432497 -0.00333297 -0.0276652 0.0226913 
7 0.0675892 -0.88642 0.509963 -0.0034812 0.00799306 -0.0145003 
8 0.763636 -3.22438 -2.52594 -0.0193785 -0.0186674 -0.0272744 
9 0.126834 -1.81213 -3.28039 -0.0162643 0.000452312 -0.00181355 
10 -1.99721 -2.09336 -1.95993 0.0201716 -0.0323245 0.00269653 
11 -1.45872 -3.68514 -2.04993 0.0344781 -0.000140355 0.0157276 
12 -1.75082 -2.28115 0.381053 -0.00972078 -0.0221587 -0.00154602 
13 -0.506244 -3.63674 0.287828 -0.0146295 -0.0068995 -0.0134967 
14 -1.14895 1.16708 -0.0379131 0.00559456 0.00344644 0.00717292 
15 -2.03475 0.590784 -0.952069 0.00105579 0.00362283 0.00867589 
16 0.0965016 1.42087 -0.691385 -0.00529016 0.00417254 1.88499e-06 
17 -0.0630052 1.14707 -2.22944 0.00172563 0.0160318 -0.0154082 
18 -1.55963 0.907378 -2.37841 -0.00271946 -0.00136293 -0.00146093 
19 0.220417 2.51847 -0.542542 -0.015926 0.00395152 -0.00360093 
20 0.836639 0.838413 -0.115528 -0.0145507 -0.0155659 0.00199629 
21 -2.98871 1.0636 -0.807262 0.00960733 0.0112855 -0.0225138 
22 -2.07736 -0.41777 -0.714548 -0.0399168 0.0225945 -0.054741 
23 -1.82041 0.169215 -3.10878 0.00792072 0.0246245 0.0057926 
24 -2.04013 1.91163 -2.69444 -0.0134345 -0.0309595 -0.0212754 
25 0.447808 0.547026 -2.62852 -0.0285577 0.0533865 0.0694975 
26 0.136871 2.25844 -2.6172 -0.0516967 0.0544466 0.0142528 
ITEM: TIMESTEP
14
ITEM: NUMBER OF ATOMS
26
ITEM: BOX BOUNDS
-3.12329 1.14648
-3.75315 2.44256
-3.26454 0.56979
ITEM: ATOMS
1 0.719392 -1.57295 -1.335 0.000709007 -0.00495849 0.0023961 
2 0.125259 -2.34851 -2.32103 0.0060711 -0.0113034 -0.000845791 
3 0.317249 -1.80489 -0.0162148 0.000355751 -0.00433961 0.00794963 
4 -0.84169 -2.70789 -0.154203 0.00110498 0.00238675 -0.0040516 
5 -1.16683 -2.75266 -1.69767 0.0035992 -0.00870633 -0.00570849 
6 1.18756 -2.29869 0.4578 -0.00467973 -0.0271361 0.0268954 
7 0.0646625 -0.876821 0.495369 -0.00232193 0.0104007 -0.0140887 
8 0.74379 -3.24186 -2.55108 -0.0190435 -0.0164071 -0.0225812 
9 0.108244 -1.80997 -3.28171 -0.0204186 0.00345176 -5.43055e-05 
10 -1.97756 -2.1237 -1.95693 0.0160782 -0.0263116 0.00198891 
11 -1.42665 -3.69218 -2.03516 0.028655 -0.0159189 0.0128641 
12 -1.75667 -2.30686 0.379096 -0.00208392 -0.0284406 -0.00248479 
13 -0.523222 -3.64778 0.274499 -0.0188792 -0.0147568 -0.0132412 
14 -1.14321 1.17064 -0.030715 0.00580821 0.00358355 0.00724466 
15 -2.03367 0.59496 -0.943909 0.00106779 0.00495254 0.0073392 
16 0.0909523 1.42509 -0.691311 -0.00577788 0.00426046 0.000106472 
17 -0.0627374 1.16604 -2.24353 -0.00170664 0.0222745 -0.0123809 
18 -1.56249 0.906727 -2.37967 -0.00283138 1.02982e-05 -0.000927874 
19 0.207358 2.52007 -0.546055 -0.00973586 -0.000322908 -0.0029881 
20 0.823655 0.824985 -0.117137 -0.0112482 -0.0103738 -0.00569449 
21 -2.98315 1.07471 -0.828013 0.00104878 0.0116372 -0.0183003 
22 -2.11861 -0.402268 -0.768383 -0.0418627 0.0055813 -0.0506475 
23 -1.81339 0.191424 -3.10521 0.00553585 0.0172569 -0.000177201 
24 -2.05096 1.87392 -2.7144 -0.00925601 -0.0413812 -0.0188007 
25 0.437679 0.581622 -2.5708 0.0127818 0.0120056 0.0428392 
26 0.0849164 2.30062 -2.60317 -0.0504573 0.0289181 0.0129565 
ITEM: TIMESTEP
15
ITEM: NUMBER OF ATOMS
26
ITEM: BOX BOUNDS
-3.12329 1.14648
-3.75315 2.44256
-3.26454 0.56979
ITEM: ATOMS
1 0.720684 -1.57726 -1.33275 0.00190309 -0.00375287 0.00211452 
2 0.13119 -2.36033 -2.32224 0.00563198 -0.0121614 -0.0016592 
3 0.317723 -1.80971 -0.00819774 0.000653903 -0.00527307 0.0080725 
4 -0.841292 -2.70529 -0.158551 -0.000252807 0.00258612 -0.00462708 
5 -1.16267 -2.76124 -1.70273 0.00486911 -0.00856756 -0.00431915 
6 1.18161 -2.32488 0.486288 -0.00820221 -0.0240091 0.0290065 
7 0.0629454 -0.865619 0.481786 -0.00103229 0.0108692 -0.0126181 
8 0.725549 -3.25719 -2.5711 -0.0161281 -0.0146029 -0.0172927 
9 0.0859972 -1.80523 -3.2805 -0.0235057 0.00545576 0.00310893 
10 -1.96506 -2.14599 -1.95595 0.00713137 -0.0172918 -0.000952571 
11 -1.40141 -3.71698 -2.0242 0.0216495 -0.0330854 0.00907091 
12 -1.75499 -2.33803 0.376083 0.00432694 -0.0326224 -0.00312403 
13 -0.544002 -3.66626 0.261345 -0.0222961 -0.0208854 -0.0135058 
14 -1.13734 1.17425 -0.0234238 0.00586678 0.00355812 0.00736017 
15 -2.03261 0.600689 -0.93739 0.00090533 0.00648299 0.00549869 
16 0.0849458 1.42939 -0.691172 -0.00620676 0.00431811 7.29591e-05 
17 -0.0664184 1.19162 -2.2542 -0.00563184 0.0283373 -0.00890899 
18 -1.56529 0.907399 -2.38027 -0.00258597 0.00110789 -0.000181239 
19 0.200945 2.51782 -0.548518 -0.00280514 -0.00332285 -0.00141768 
20 0.814143 0.817665 -0.126917 -0.00740128 -0.00389963 -0.0138977 
21 -2.98661 1.08687 -0.843863 -0.00723203 0.0129644 -0.012985 
22 -2.16109 -0.406608 -0.815843 -0.0421099 -0.0136877 -0.0428599 
23 -1.80934 0.203729 -3.10913 0.00256985 0.00611727 -0.00787747 
24 -2.05864 1.82886 -2.73204 -0.00781893 -0.0448079 -0.0171212 
25 0.473372 0.571038 -2.54284 0.0561897 -0.029509 0.0148379 
26 0.0359561 2.31628 -2.59129 -0.0454846 0.00485611 0.00934281 
ITEM: TIMESTEP
16
ITEM: NUMBER OF ATOMS
26
ITEM: BOX BOUNDS
-3.12329 1.14648
-3.75315 2.44256
-3.26454 0.56979
ITEM: ATOMS
1 0.723198 -1.58045 -1.33077 0.00313231 -0.00275047 0.00188562 
2 0.136523 -2.37284 -2.32434 0.00490105 -0.0126664 -0.00254148 
3 0.318557 -1.81544 -6.9798e-05 0.00103097 -0.00611965 0.00815704 
4 -0.842196 -2.70272 -0.163457 -0.00143665 0.0022652 -0.00518068 
5 -1.1571 -2.76979 -1.70631 0.00621251 -0.00876003 -0.00286709 
6 1.17116 -2.34671 0.515813 -0.0131052 -0.0187923 0.0291385 
7 0.0625979 -0.855083 0.470133 0.000426069 0.00901877 -0.0103362 
8 0.711534 -3.27106 -2.58567 -0.0107753 -0.0135247 -0.0119497 
9 0.0612327 -1.79906 -3.2755 -0.0254161 0.00622907 0.00715864 
10 -1.9633 -2.15828 -1.95884 -0.00362938 -0.00770713 -0.00517586 
11 -1.38335 -3.75835 -2.01702 0.0150113 -0.0465266 0.00612231 
12 -1.74802 -2.37211 0.372848 0.00786103 -0.0340837 -0.00258248 
13 -0.567815 -3.68955 0.247487 -0.0249189 -0.023805 -0.0148201 
14 -1.13148 1.17776 -0.0159947 0.0057689 0.00338094 0.00751265 
15 -2.03186 0.607926 -0.932912 0.000340207 0.00773797 0.00335034 
16 0.0785387 1.43373 -0.691165 -0.0065715 0.00438643 -0.000199279 
17 -0.074001 1.22271 -2.26135 -0.00894974 0.0325118 -0.00559046 
18 -1.56766 0.908943 -2.38004 -0.00199099 0.00165305 0.000623393 
19 0.201748 2.51343 -0.548891 0.00449338 -0.00443443 0.00118344 
20 0.808852 0.817185 -0.144932 -0.00266075 0.00267718 -0.0217243 