       0       0.000         0.135381350       300.000000000        -0.555851733        -0.420470383         0.000000000
     100     100.000         0.136454986       302.379137343        -0.557205774        -0.420750787         0.020400000
     200     200.000         0.120781583       267.647462971        -0.541748139        -0.420966556         0.020400000
     300     300.000         0.114833568       254.466883829        -0.535593305        -0.420759738         0.020400000
     400     400.000         0.125085614       277.185033575        -0.545975791        -0.420890178         0.020500000
     500     500.000         0.119311984       264.390885530        -0.540267574        -0.420955590         0.020400000
     600     600.000         0.116976812       259.216232913        -0.538016181        -0.421039369         0.020500000
     700     700.000         0.121053709       268.250483104        -0.541940641        -0.420886933         0.020400000
     800     800.000         0.131367436       291.105316166        -0.552393262        -0.421025826         0.020400000
     900     900.000         0.113673017       251.895146805        -0.534535289        -0.420862272         0.020700000
    1000    1000.000         0.129269973       286.457416459        -0.550395510        -0.421125537         0.020400000
    1100    1100.000         0.107066301       237.254911824        -0.527837505        -0.420771204         0.020200000
    1200    1200.000         0.119348435       264.471661188        -0.540260566        -0.420912131         0.020400000
    1300    1300.000         0.113767773       252.105122346        -0.534732023        -0.420964250         0.020500000
    1400    1400.000         0.104471279       231.504439860        -0.525239187        -0.420767908         0.020700000
    1500    1500.000         0.114268814       253.215410691        -0.535227375        -0.420958561         0.020500000
    1600    1600.000         0.111364683       246.779965151        -0.532301672        -0.420936989         0.020500000
    1700    1700.000         0.108117820       239.585038719        -0.528972622        -0.420854802         0.020500000
    1800    1800.000         0.103070711       228.400834753        -0.524009054        -0.420938343         0.020500000
    1900    1900.000         0.117810653       261.063993551        -0.538791022        -0.420980369         0.020400000
    2000    2000.000         0.118453194       262.487840578        -0.539400274        -0.420947080         0.020600000
    2100    2100.000         0.121192306       268.557609441        -0.542304473        -0.421112167         0.032500000
    2200    2200.000         0.131042032       290.384232871        -0.552314869        -0.421272837         0.020600000
    2300    2300.000         0.117871732       261.199341820        -0.538680643        -0.420808911         0.020600000
    2400    2400.000         0.130416389       288.997830917        -0.551544220        -0.421127831         0.020400000
    2500    2500.000         0.138842475       307.669722562        -0.559968551        -0.421126076         0.020300000
    2600    2600.000         0.129000091       285.859368100        -0.550009140        -0.421009049         0.020700000
    2700    2700.000         0.124195445       275.212453435        -0.545457932        -0.421262487         0.020400000
    2800    2800.000         0.125846111       278.870267333        -0.546746372        -0.420900261         0.020600000
    2900    2900.000         0.134210432       297.405289810        -0.555400271        -0.421189839         0.020300000
    3000    3000.000         0.120835736       267.767464669        -0.541770186        -0.420934450         0.021000000
    3100    3100.000         0.145700895       322.867725209        -0.566955425        -0.421254530         0.020400000
    3200    3200.000         0.117226089       259.768620565        -0.538071012        -0.420844923         0.020700000
    3300    3300.000         0.125321541       277.707839527        -0.546248906        -0.420927365         0.020500000
    3400    3400.000         0.138058762       305.933043643        -0.558931353        -0.420872591         0.020400000
    3500    3500.000         0.130730184       289.693189379        -0.551610059        -0.420879875         0.032100000
    3600    3600.000         0.134701667       298.493848458        -0.555903959        -0.421202291         0.020400000
    3700    3700.000         0.131563131       291.538968241        -0.552513665        -0.420950534         0.020300000
    3800    3800.000         0.143906659       318.891764880        -0.565316182        -0.421409523         0.020400000
    3900    3900.000         0.123509511       273.692450009        -0.544522339        -0.421012828         0.020400000
    4000    4000.000         0.140389764       311.098457527        -0.561609378        -0.421219614         0.020500000
    4100    4100.000         0.115320116       255.545055562        -0.536005969        -0.420685853         0.032000000
    4200    4200.000         0.129508752       286.986542133        -0.550525751        -0.421016999         0.020700000
    4300    4300.000         0.117376768       260.102519533        -0.538306258        -0.420929490         0.020400000
    4400    4400.000         0.109923491       243.586338413        -0.530920349        -0.420996858         0.020700000
    4500    4500.000         0.127475267       282.480414792        -0.548651930        -0.421176664         0.020300000
    4600    4600.000         0.115121768       255.105524969        -0.535913618        -0.420791850         0.020400000
    4700    4700.000         0.139268779       308.614396748        -0.560343439        -0.421074660         0.020500000
    4800    4800.000         0.128954344       285.757995996        -0.549921651        -0.420967306         0.020400000
    4900    4900.000         0.112697789       249.734077682        -0.533669775        -0.420971987         0.020600000
    5000    5000.000         0.132761008       294.193420433        -0.553512326        -0.420751317         0.020400000
    5100    5100.000         0.121777904       269.855272973        -0.542799942        -0.421022038         0.020400000
    5200    5200.000         0.139247819       308.567950715        -0.560618527        -0.421370708         0.031800000
    5300    5300.000         0.124113325       275.030478192        -0.544953736        -0.420840411         0.020500000
    5400    5400.000         0.121902875       270.132203424        -0.543025968        -0.421123093         0.032300000
    5500    5500.000         0.124885295       276.741134218        -0.545795128        -0.420909833         0.020500000
    5600    5600.000         0.124824540       276.606503016        -0.545842624        -0.421018084         0.020400000
    5700    5700.000         0.133020667       294.768814166        -0.554032796        -0.421012129         0.020400000
    5800    5800.000         0.124933507       276.847970081        -0.545800500        -0.420866993         0.020600000
    5900    5900.000         0.124083550       274.964497108        -0.545160523        -0.421076973         0.020500000
    6000    6000.000         0.127196628       281.862962406        -0.548159406        -0.420962778         0.020500000
    6100    6100.000         0.123294733       273.216508777        -0.544423027        -0.421128294         0.020400000
    6200    6200.000         0.129770178       287.565853287        -0.550641863        -0.420871685         0.020600000
    6300    6300.000         0.127287282       282.063848334        -0.548280831        -0.420993549         0.020600000
    6400    6400.000         0.128202326       284.091551267        -0.549242548        -0.421040222         0.020300000
    6500    6500.000         0.134308843       297.623364015        -0.555448095        -0.421139252         0.020400000
    6600    6600.000         0.127720605       283.024075715        -0.548622158        -0.420901553         0.020500000
    6700    6700.000         0.122519951       271.499621978        -0.543449746        -0.420929795         0.020500000
    6800    6800.000         0.122950851       272.454478917        -0.543944320        -0.420993469         0.020300000
    6900    6900.000         0.120256844       266.484661503        -0.541197128        -0.420940284         0.020600000
    7000    7000.000         0.130784901       289.814439815        -0.551663936        -0.420879036         0.020400000
    7100    7100.000         0.125586625       278.295256440        -0.546593801        -0.421007176         0.020600000
    7200    7200.000         0.101881724       225.766084195        -0.522556354        -0.420674629         0.020300000
    7300    7300.000         0.129747784       287.516228355        -0.550831998        -0.421084214         0.020500000
    7400    7400.000         0.116921425       259.093498381        -0.537796004        -0.420874579         0.020600000
    7500    7500.000         0.120808495       267.707099110        -0.541552995        -0.420744500         0.020600000
    7600    7600.000         0.134401397       297.828460702        -0.555397793        -0.420996396         0.020500000
    7700    7700.000         0.127107273       281.664954923        -0.547862957        -0.420755684         0.020600000
    7800    7800.000         0.127859770       283.332460217        -0.548870534        -0.421010763         0.020500000
    7900    7900.000         0.105796895       234.441955318        -0.526547715        -0.420750820         0.031700000
    8000    8000.000         0.114615653       253.983993848        -0.535387813        -0.420772159         0.032400000
    8100    8100.000         0.134632398       298.340349628        -0.555619790        -0.420987393         0.020400000
    8200    8200.000         0.122818226       272.160586856        -0.543793457        -0.420975232         0.020400000
    8300    8300.000         0.136816135       303.179429806        -0.557919243        -0.421103108         0.020400000
    8400    8400.000         0.121986812       270.318204891        -0.542946839        -0.420960027         0.020500000
    8500    8500.000         0.154806763       343.045987890        -0.575969356        -0.421162593         0.020400000
    8600    8600.000         0.111856378       247.869542430        -0.532822729        -0.420966351         0.020400000
    8700    8700.000         0.136931051       303.434079773        -0.558013967        -0.421082915         0.020600000
    8800    8800.000         0.113341911       251.161428720        -0.533997274        -0.420655363         0.020600000
    8900    8900.000         0.128055132       283.765374993        -0.548952474        -0.420897342         0.020600000
    9000    9000.000         0.133005154       294.734438408        -0.553933170        -0.420928016         0.020500000
    9100    9100.000         0.105777990       234.400062503        -0.526738423        -0.420960434         0.033000000
    9200    9200.000         0.123799803       274.335725497        -0.544770770        -0.420970967         0.020300000
    9300    9300.000         0.135664528       300.627510559        -0.556763259        -0.421098731         0.020400000
    9400    9400.000         0.119231423       264.212365541        -0.540191605        -0.420960182         0.020700000
    9500    9500.000         0.120748269       267.573640501        -0.541771078        -0.421022809         0.031900000
    9600    9600.000         0.135383804       300.005436695        -0.556635514        -0.421251711         0.020600000
    9700    9700.000         0.125154433       277.337535114        -0.546221918        -0.421067485         0.020500000
    9800    9800.000         0.128865256       285.560578694        -0.549907279        -0.421042023         0.020600000
    9900    9900.000         0.133764926       296.418065240        -0.554714628        -0.420949702         0.020500000
   10000   10000.000         0.134933824       299.008298056        -0.555864530        -0.420930706         0.020800000
   10100   10100.000         0.138966514       307.944588446        -0.560176571        -0.421210057         0.020500000
   10200   10200.000         0.129366347       286.670978068        -0.550514921        -0.421148575         0.020500000
   10300   10300.000         0.127717152       283.016424712        -0.548647729        -0.420930577         0.020400000
   10400   10400.000         0.131833285       292.137619477        -0.552934824        -0.421101539         0.031800000
   10500   10500.000         0.114533248       253.801386809        -0.535182484        -0.420649236         0.020500000
   10600   10600.000         0.119993381       265.900837691        -0.541011683        -0.421018302         0.020500000
   10700   10700.000         0.115304611       255.510699175        -0.535956320        -0.420651709         0.020600000
   10800   10800.000         0.129028261       285.921792250        -0.550148648        -0.421120387         0.020400000
   10900   10900.000         0.123401781       273.453723178        -0.544360717        -0.420958936         0.020700000
   11000   11000.000         0.121444663       269.116822700        -0.542196795        -0.420752132         0.020400000
   11100   11100.000         0.142332771       315.404087868        -0.563755217        -0.421422446         0.020900000
   11200   11200.000         0.145569071       322.575608168        -0.566853131        -0.421284060         0.020500000
   11300   11300.000         0.127968456       283.573305252        -0.549068754        -0.421100297         0.021000000
   11400   11400.000         0.132810663       294.303452941        -0.553615773        -0.420805110         0.020400000
   11500   11500.000         0.122185922       270.759425389        -0.542888361        -0.420702439         0.032400000
   11600   11600.000         0.129304511       286.533951338        -0.550302915        -0.420998404         0.020500000
   11700   11700.000         0.136135904       301.672063914        -0.557111816        -0.420975912         0.032100000
   11800   11800.000         0.140454273       311.241407636        -0.561329890        -0.420875617         0.020500000
   11900   11900.000         0.125372969       277.821803175        -0.546636559        -0.421263590         0.020400000
   12000   12000.000         0.129006884       285.874422644        -0.550153301        -0.421146416         0.020500000
   12100   12100.000         0.122098033       270.564665990        -0.543064909        -0.420966876         0.020500000
   12200   12200.000         0.131327050       291.015822642        -0.552228615        -0.420901565         0.020500000
   12300   12300.000         0.120106090       266.150594742        -0.541039957        -0.420933868         0.020500000
   12400   12400.000         0.121448661       269.125683450        -0.542238634        -0.420789973         0.020400000
   12500   12500.000         0.126728116       280.824758142        -0.547747888        -0.421019771         0.032000000
   12600   12600.000         0.123982912       274.741489024        -0.544800185        -0.420817272         0.020400000
   12700   12700.000         0.128718399       285.235150520        -0.549632079        -0.420913679         0.020500000
   12800   12800.000         0.116184947       257.461490030        -0.537011128        -0.420826180         0.020400000
   12900   12900.000         0.126410306       280.120501221        -0.547157771        -0.420747465         0.020400000
   13000   13000.000         0.128924587       285.692054972        -0.549972963        -0.421048376         0.020500000
   13100   13100.000         0.134521811       298.095292315        -0.555473427        -0.420951616         0.020500000
   13200   13200.000         0.110455826       244.765971816        -0.531167121        -0.420711295         0.020300000
   13300   13300.000         0.130335192       288.817902626        -0.551421292        -0.421086100         0.020400000
   13400   13400.000         0.124324691       275.498856745        -0.545116546        -0.420791855         0.020500000
   13500   13500.000         0.134313045       297.632674977        -0.555222953        -0.420909909         0.020500000
   13600   13600.000         0.140691410       311.766892803        -0.561860351        -0.421168941         0.020600000
   13700   13700.000         0.137846742       305.463216509        -0.558925382        -0.421078640         0.020600000
   13800   13800.000         0.133653131       296.170331138        -0.554647854        -0.420994723         0.032100000
   13900   13900.000         0.117514297       260.407279849        -0.538498728        -0.420984431         0.020500000
   14000   14000.000         0.120994941       268.120255083        -0.542069287        -0.421074346         0.020600000
   14100   14100.000         0.121017281       268.169761643        -0.541835404        -0.420818122         0.020400000
   14200   14200.000         0.149522543       331.336352887        -0.570964549        -0.421442007         0.020400000
   14300   14300.000         0.125474659       278.047143833        -0.546400448        -0.420925789         0.020500000
   14400   14400.000         0.117894211       261.249154370        -0.538948460        -0.421054249         0.020400000
   14500   14500.000         0.129791862       287.613903937        -0.551104285        -0.421312423         0.020700000
   14600   14600.000         0.139149119       308.349234716        -0.560337826        -0.421188707         0.020600000
   14700   14700.000         0.119962343       265.832056685        -0.540956152        -0.420993809         0.020500000
   14800   14800.000         0.129773950       287.574210540        -0.551008565        -0.421234616         0.020500000
   14900   14900.000         0.124029662       274.845084848        -0.544951436        -0.420921774         0.020400000
   15000   15000.000         0.121463074       269.157620809        -0.542518538        -0.421055464         0.020400000
   15100   15100.000         0.116175131       257.439737374        -0.537028572        -0.420853441         0.020600000
   15200   15200.000         0.126172449       279.593420258        -0.547152097        -0.420979648         0.020500000
   15300   15300.000         0.115040656       254.925784677        -0.536012014        -0.420971358         0.020700000
   15400   15400.000         0.141264939       313.037813344        -0.562437112        -0.421172173         0.032000000
   15500   15500.000         0.129127775       286.142311103        -0.550265693        -0.421137918         0.020600000
   15600   15600.000         0.131334280       291.031843798        -0.552358955        -0.421024675         0.020400000
   15700   15700.000         0.122768744       272.050937238        -0.543588530        -0.420819786         0.031800000
   15800   15800.000         0.130260229       288.651786554        -0.551408429        -0.421148200         0.020500000
   15900   15900.000         0.147751029       327.410744849        -0.568837549        -0.421086520         0.020500000
   16000   16000.000         0.141640113       313.869183311        -0.563024484        -0.421384372         0.020400000
   16100   16100.000         0.133804801       296.506427045        -0.555096512        -0.421291711         0.020700000
   16200   16200.000         0.122767096       272.047285434        -0.543506640        -0.420739544         0.020500000
   16300   16300.000         0.117715401       260.852918944        -0.538806733        -0.421091331         0.020600000
   16400   16400.000         0.136688351       302.896264890        -0.557788301        -0.421099950         0.020400000
   16500   16500.000         0.124526360       275.945748546        -0.545600636        -0.421074276         0.020500000
   16600   16600.000         0.142656828       316.122187212        -0.564078471        -0.421421643         0.031900000
   16700   16700.000         0.141807340       314.239752397        -0.562909882        -0.421102542         0.020300000
   16800   16800.000         0.118539545       262.679189855        -0.539967482        -0.421427938         0.020600000
   16900   16900.000         0.127227288       281.930903922        -0.548158255        -0.420930967         0.020400000
   17000   17000.000         0.145906172       323.322611562        -0.567355373        -0.421449201         0.020500000
   17100   17100.000         0.129330661       286.591898834        -0.550594940        -0.421264280         0.020400000
   17200   17200.000         0.135054138       299.274909091        -0.556236468        -0.421182330         0.020700000
   17300   17300.000         0.128443329       284.625605699        -0.549486500        -0.421043170         0.020500000
   17400   17400.000         0.127543000       282.630510639        -0.548476393        -0.420933392         0.020500000
   17500   17500.000         0.122897350       272.335923297        -0.543831245        -0.420933895         0.020500000
   17600   17600.000         0.134905312       298.945117250        -0.556230232        -0.421324920         0.020400000
   17700   17700.000         0.136649861       302.810972419        -0.557492331        -0.420842470         0.020500000
   17800   17800.000         0.144162472       319.458636517        -0.565635461        -0.421472990         0.020600000
   17900   17900.000         0.114272271       253.223071203        -0.534810866        -0.420538595         0.032100000
   18000   18000.000         0.135417237       300.079524792        -0.556787189        -0.421369951         0.020600000
   18100   18100.000         0.140906544       312.243622206        -0.562206556        -0.421300012         0.020400000
   18200   18200.000         0.127649004       282.865409590        -0.548702046        -0.421053042         0.020400000
   18300   18300.000         0.129140494       286.170496853        -0.550079881        -0.420939387         0.020400000
   18400   18400.000         0.132976673       294.671324954        -0.554067314        -0.421090641         0.020500000
   18500   18500.000         0.121205355       268.586526684        -0.542182455        -0.420977099         0.020500000
   18600   18600.000         0.117703579       260.826721801        -0.538404362        -0.420700783         0.020500000
   18700   18700.000         0.128807209       285.431948601        -0.549995951        -0.421188743         0.020400000
   18800   18800.000         0.119478606       264.760114983        -0.540399981        -0.420921375         0.020400000
   18900   18900.000         0.132285760       293.140287270        -0.552980874        -0.420695114         0.020500000
   19000   19000.000         0.133981355       296.897662099        -0.555292623        -0.421311269         0.020500000
   19100   19100.000         0.132037303       292.589717119        -0.553075274        -0.421037971         0.020500000
   19200   19200.000         0.125510168       278.125830663        -0.546794668        -0.421284500         0.020300000
   19300   19300.000         0.110146062       244.079547293        -0.530934716        -0.420788653         0.020500000
   19400   19400.000         0.128478622       284.703812925        -0.549560998        -0.421082376         0.031600000
   19500   19500.000         0.144174835       319.486033816        -0.565358862        -0.421184026         0.020700000
   19600   19600.000         0.111293456       246.622128001        -0.532224521        -0.420931065         0.020500000
   19700   19700.000         0.115226424       255.337437716        -0.536231785        -0.421005361         0.020600000
   19800   19800.000         0.113179962       250.802555418        -0.534160912        -0.420980951         0.020700000
   19900   19900.000         0.121935259       270.203965898        -0.542626022        -0.420690763         0.021400000
   20000   20000.000         0.115329064       255.564883949        -0.536210544        -0.420881480         0.020300000
