      96
 i =       0, E =       -0.5558517331
  O        -4.5830000000        5.3330000000        1.5600000000
  H        -3.7770000000        5.3310000000        0.9430000000
  H        -5.0810000000        4.5890000000        1.1760000000
  O        -0.0830000000        4.2180000000        0.0700000000
  H        -0.4310000000        3.3970000000        0.6090000000
  H         0.3770000000        3.7560000000       -0.6880000000
  O        -1.4880000000        2.6920000000        4.1250000000
  H        -2.4650000000        2.4330000000        3.9160000000
  H        -1.2680000000        2.1450000000        4.9520000000
  O        -2.4610000000       -2.5480000000       -6.1360000000
  H        -1.8920000000       -2.2410000000       -6.9210000000
  H        -1.9700000000       -3.3210000000       -5.7730000000
  O         4.0320000000        0.1610000000        2.1830000000
  H         4.2720000000       -0.0520000000        1.2320000000
  H         4.0440000000       -0.7600000000        2.6410000000
  O         2.9500000000       -3.4970000000       -1.0060000000
  H         2.5990000000       -3.9010000000       -0.1290000000
  H         3.1930000000       -4.2830000000       -1.5330000000
  O        -2.8900000000       -4.7970000000       -2.7350000000
  H        -2.8100000000       -5.7060000000       -2.2970000000
  H        -2.4370000000       -4.1280000000       -2.0390000000
  O        -0.5530000000        0.9220000000       -3.7310000000
  H        -0.1630000000        1.5520000000       -3.0850000000
  H        -1.3760000000        0.5440000000       -3.4690000000
  O         4.1790000000        4.0170000000        4.2780000000
  H         3.2750000000        3.8320000000        3.8760000000
  H         4.6580000000        4.4920000000        3.5720000000
  O         5.7390000000        1.4250000000        3.9440000000
  H         5.1250000000        2.0660000000        4.3460000000
  H         5.1730000000        1.1810000000        3.0970000000
  O         0.9880000000       -0.7600000000       -5.4450000000
  H         1.6400000000       -1.3720000000       -4.9890000000
  H         0.5460000000       -0.2200000000       -4.7620000000
  O        -0.7480000000        1.9850000000        1.2490000000
  H        -0.0010000000        1.4900000000        1.5400000000
  H        -1.1600000000        2.2550000000        2.1090000000
  O         4.1270000000       -0.2340000000       -3.1490000000
  H         5.0220000000       -0.4360000000       -3.4280000000
  H         3.5400000000       -0.9180000000       -3.6010000000
  O        -2.4730000000        2.7680000000       -1.3950000000
  H        -1.5330000000        2.7190000000       -1.2140000000
  H        -2.7020000000        1.8080000000       -1.4790000000
  O        -0.1240000000       -2.1160000000        2.4040000000
  H         0.6120000000       -2.5930000000        2.0100000000
  H         0.2650000000       -1.4980000000        3.0890000000
  O         0.7280000000        2.8230000000       -2.1900000000
  H         0.6460000000        3.6940000000       -2.6850000000
  H         1.6880000000        2.7050000000       -1.9470000000
  O         4.2560000000       -5.4270000000       -2.6440000000
  H         5.2220000000       -5.0460000000       -2.4790000000
  H         4.1740000000       -5.6280000000       -3.5930000000
  O        -3.1780000000       -0.5080000000       -4.2270000000
  H        -2.7620000000       -1.2210000000       -4.8180000000
  H        -3.6030000000        0.0730000000       -4.9560000000
  O        -1.4490000000        5.3000000000       -4.8050000000
  H        -1.3970000000        4.4700000000       -5.3170000000
  H        -2.1020000000        5.0910000000       -4.0670000000
  O         3.3540000000        2.1920000000       -1.7550000000
  H         3.4070000000        1.4330000000       -2.4050000000
  H         3.9710000000        2.9580000000       -2.1960000000
  O         1.7730000000       -4.0180000000        1.7690000000
  H         1.1210000000       -4.5320000000        1.2010000000
  H         1.9750000000       -4.5290000000        2.6180000000
  O         1.5260000000        1.3840000000        2.7120000000
  H         2.3170000000        1.0700000000        2.2510000000
  H         1.3530000000        0.6570000000        3.3640000000
  O         2.7110000000       -2.3980000000       -4.2530000000
  H         2.2020000000       -3.2570000000       -4.1200000000
  H         3.3050000000       -2.6100000000       -5.0990000000
  O         6.9330000000        0.0930000000       -1.3930000000
  H         6.1600000000       -0.1370000000       -0.7950000000
  H         6.7480000000       -0.3940000000       -2.2290000000
  O        -5.6050000000       -2.5490000000        3.1510000000
  H        -4.7560000000       -2.5030000000        3.6160000000
  H        -5.4730000000       -3.1870000000        2.3780000000
  O         0.8210000000       -4.4060000000        6.5160000000
  H         0.8470000000       -3.6750000000        7.2250000000
  H        -0.0140000000       -4.2400000000        5.9880000000
  O         1.5770000000        3.9330000000        3.7620000000
  H         1.2210000000        2.9750000000        3.6400000000
  H         1.3670000000        4.1260000000        4.6590000000
  O        -2.1110000000       -3.7410000000       -0.2190000000
  H        -1.3780000000       -4.4250000000       -0.0360000000
  H        -1.8250000000       -2.7750000000        0.0030000000
  O         0.9260000000       -1.9610000000       -2.0630000000
  H         0.1490000000       -1.8210000000       -1.4020000000
  H         1.7250000000       -2.3030000000       -1.5360000000
  O         4.5310000000       -1.0300000000       -0.5470000000
  H         4.2900000000       -1.9800000000       -0.5810000000
  H         4.2920000000       -0.5970000000       -1.3900000000
  O        -0.7400000000       -1.2620000000       -0.0290000000
  H        -1.2720000000       -0.4220000000       -0.0990000000
  H        -0.4030000000       -1.3490000000        0.8730000000
  O         3.6550000000        3.0210000000        0.9880000000
  H         2.7060000000        3.0530000000        1.2820000000
  H         3.5420000000        2.6150000000        0.0200000000
      96
 i =     100, E =       -0.5572057735
  O        -4.0430919330        5.0728765587        1.9385103896
  H        -3.8590008683        5.6797965391        1.1772882175
  H        -4.6920887122        4.4716746198        1.4131023064
  O         0.9110587641        3.6865070256        0.2430516412
  H         0.4142845500        2.9297782210        0.6174777426
  H         1.0017276624        3.2113758455       -0.6057152201
  O        -1.5118012512        2.5303735275        3.8972289257
  H        -2.4916031816        2.2013060775        3.9070424701
  H        -1.1518020331        2.0766564990        4.6574639155
  O        -2.7311450912       -1.9847693200       -6.7579445411
  H        -1.7883438867       -1.8213834234       -7.0543656062
  H        -2.4285121627       -2.9343227107       -6.3955392280
  O         4.2540864516       -0.0228513547        2.1274291589
  H         4.6297728654       -0.0929358684        1.2348971428
  H         4.4761790515       -0.9078447236        2.5210763883
  O         3.9084056380       -3.4271609539       -0.6478093831
  H         3.5465907880       -4.1774385212       -0.0192272348
  H         3.9424629501       -3.9769100102       -1.4432593197
  O        -3.2344314304       -4.8844206056       -3.0979505583
  H        -3.0156169604       -5.6626737662       -2.5521301119
  H        -3.2507138523       -4.1734607935       -2.3876505216
  O        -0.9276592222        1.0392997707       -3.3975167069
  H        -0.2781321261        1.4393845274       -2.7983057233
  H        -1.6429464715        0.8737224642       -2.7362567519
  O         4.3317509349        3.9244757041        4.1862894153
  H         3.4128666546        3.9930657376        3.9080787024
  H         4.5877132583        4.7971946324        3.9135871512
  O         5.5714954608        1.5111518683        4.0929750601
  H         5.1853335261        2.4714433174        4.0538517248
  H         5.1791310108        1.1585108115        3.1991773967
  O         0.8629384487       -0.4355789848       -5.1300639206
  H         1.5178993774       -0.9071110267       -4.5432161762
  H         0.1753141664       -0.1400441240       -4.5711620863
  O        -0.4034235136        1.3223584491        1.4918144550
  H         0.4359223597        1.1495081422        1.8845435738
  H        -0.8548923221        1.5821792759        2.3444705898
  O         3.6521572277        0.1511942962       -3.1479487015
  H         4.5117803694       -0.0663975435       -3.5273527770
  H         3.3091175046       -0.7356579744       -3.4152822421
  O        -3.0097757814        3.0314629950       -1.0524943567
  H        -3.1377159969        3.3876911019       -0.1621904889
  H        -2.8006685981        2.0760193554       -0.9428669009
  O        -0.1173920190       -1.5024762719        2.4167080483
  H         0.5051314454       -2.2907363916        2.3512810365
  H         0.0962501640       -1.1212538430        3.2816266409
  O         0.9380378284        2.7595297122       -2.1808833854
  H         0.7347652406        3.5096722239       -2.8102752620
  H         1.8917838912        2.5865456499       -2.3520589251
  O         3.9856242338       -4.9865218324       -2.9911659531
  H         5.0044501268       -4.8098374590       -3.1306424693
  H         3.8123659807       -5.5424794689       -3.7795976162
  O        -3.6726831582       -0.7902221216       -4.0538546767
  H        -3.1407198167       -1.2372072265       -4.6849210743
  H        -3.8784171188        0.0233329993       -4.6364943738
  O        -2.0330357438        5.4195073535       -5.6199293933
  H        -2.0501848465        4.5289186844       -6.0061123601
  H        -2.5634797295        5.1976496728       -4.8392759233
  O         3.9350141783        2.0217933922       -1.0762502488
  H         3.8805633558        1.5689464807       -1.9797893908
  H         4.9551039619        2.0343460571       -1.0427579054
  O         1.4832806279       -3.6655191307        1.7240043377
  H         1.0776552107       -4.2846632615        1.0399815527
  H         1.5103740480       -4.2794662530        2.4689821895
  O         1.9858463770        1.1605901954        2.7360506614
  H         2.8793683079        0.7713618573        2.3977248502
  H         1.7165117730        0.5178912387        3.4399192864
  O         3.2064974571       -2.3058717850       -4.3079203510
  H         3.1226492483       -3.1612472928       -3.8301946527
  H         3.8687990944       -2.6427040417       -5.0828730205
  O         7.1486744696        0.3218861966       -1.5520950793
  H         6.5199191153       -0.1989311202       -0.9473902843
  H         6.9007165065       -0.1820481942       -2.3564469767
  O        -5.0567716721       -3.0508601450        3.6590829947
  H        -4.3077466116       -2.4795670457        3.4470529243
  H        -4.7911883000       -3.6922931825        2.9610253892
  O         0.1850217845       -4.9721210132        6.1101445435
  H         0.3104148706       -4.1042249063        6.6608847121
  H        -0.3140914016       -4.6550220774        5.3423634303
  O         1.4614742483        3.8157852260        3.4528859850
  H         1.3832433647        2.8996891777        3.1424661618
  H         0.7341217802        3.7774056304        4.1776292679
  O        -2.8241436786       -3.5310558132       -0.1787866512
  H        -1.9827697360       -4.0354677639        0.1759504012
  H        -2.3277735412       -2.6673168279       -0.3448293790
  O         0.1966496945       -2.7139170840       -2.3107664761
  H        -0.2515055974       -2.1660617829       -1.6030172128
  H         1.1303596854       -2.6255357762       -1.9954152445
  O         5.1625808921       -0.8420518086       -0.4705872640
  H         5.2527658776       -1.7825874238       -0.5930027875
  H         4.3530698787       -0.6977538250       -1.0089401012
  O        -1.0551030602       -1.5072934513       -0.0981636174
  H        -1.3059496885       -0.5573797065       -0.1533071105
  H        -0.6508491458       -1.4135824476        0.7816385730
  O         3.7187224966        3.7974619077        0.9618431556
  H         2.7289680332        3.6537048716        1.1841961193
  H         3.6323013182        3.2387295920        0.0829556428
      96
 i =     200, E =       -0.5417481393
  O        -3.6680611510        4.7282882993        1.8485552510
  H        -3.4311819693        5.2735885124        1.0625401474
  H        -4.5816055051        4.5367660213        1.4154134510
  O         1.1297085802        3.6134468208        0.4222231929
  H         0.5457040278        2.8525121013        0.6253104478
  H         1.1247440795        3.3450877388       -0.5336727863
  O        -1.3896172012        1.9627255778        3.7086329355
  H        -2.4326462103        1.8613127070        3.8258300302
  H        -1.1257310146        1.5956935750        4.5884299601
  O        -2.4120493490       -1.9034495193       -6.8148435368
  H        -1.6449707675       -1.5755390820       -7.2458928445
  H        -1.9428247410       -2.7724400471       -6.7657089141
  O         4.6723016054       -0.4674074330        2.4354513712
  H         5.0742097204       -0.7086163910        1.5788916264
  H         4.8693115490       -1.2412550017        3.0193723330
  O         4.0086792717       -3.5635978801       -0.7570673736
  H         4.0390884450       -4.3079528275       -0.1031791270
  H         3.8939175953       -4.1163870182       -1.5622635124
  O        -3.5665018680       -4.9502181763       -3.0259712300
  H        -3.3429921441       -5.7686757384       -2.4648128437
  H        -3.1059877989       -4.4992083918       -2.2484076762
  O        -0.4052508493        1.4185986769       -3.6428108186
  H         0.3722014135        1.8690480628       -3.3018671749
  H        -0.9781326847        1.5701315114       -2.9033441747
  O         3.9456459451        3.5016296826        4.5010357856
  H         2.9694464927        3.5780409889        4.4015463045
  H         4.0127886502        3.6123285778        3.5633227523
  O         5.8310943999        1.5351587694        3.9403194670
  H         5.1119176695        2.1748136040        4.3298482251
  H         5.2462533030        1.1178837294        3.1776593790
  O         1.0034628774       -0.5433339817       -5.0869937284
  H         1.5404135880       -1.2332263236       -4.5786568349
  H         0.6808105449        0.1006907388       -4.3948292840
  O        -0.6485067824        1.5065875539        1.2240809709
  H        -0.0960577835        0.8468186672        1.7271617574
  H        -1.0260103255        1.7473114872        2.1497825889
  O         3.5010861358        0.0403989846       -2.3020269718
  H         4.2935035225        0.0954876041       -2.8919336926
  H         3.1172070692       -0.7746370545       -2.7710157217
  O        -3.1300159585        3.2920699223       -0.9272573635
  H        -2.8034215293        3.6517643444       -0.0765603347
  H        -2.5729409495        2.4781657558       -0.8642427103
  O         0.2496700793       -1.2863395889        2.2923839092
  H         0.5884028191       -2.2020185901        2.1151383032
  H         0.5645709928       -1.0855040665        3.1997557990
  O         1.3523623072        3.1235985129       -2.5011630737
  H         1.1001717784        3.8172936682       -3.1816348789
  H         2.3174249177        3.3742823471       -2.6265722933
  O         3.7897392127       -4.6867389073       -3.4149204184
  H         4.8179156824       -4.6867013215       -3.3672311304
  H         3.9185973044       -5.3991125637       -4.0829496604
  O        -3.7096587740       -0.4587549336       -3.8508476034
  H        -3.5039217686       -1.2663472132       -4.3315146409
  H        -3.8125018192        0.0690026577       -4.6534227072
  O        -2.4104206879        5.3673395073       -5.7129575786
  H        -2.7431718374        4.7628298623       -6.4095011018
  H        -2.9717358585        5.1797103519       -4.9678245887
  O         3.9912053437        2.4006133398       -1.0347603520
  H         3.5691680941        1.5616947895       -1.4267551959
  H         4.9390448699        2.1609506629       -0.9519183581
  O         0.9477369135       -3.8029658346        1.6522670117
  H         1.1404748854       -4.5754837229        1.0465152867
  H         1.2038518117       -4.4618563399        2.4322961285
  O         2.2179680254        1.1351896486        3.0044346175
  H         2.8369998012        0.4055045906        2.7720630440
  H         1.6501912646        0.6714904456        3.6535462509
  O         2.8613613084       -1.9742407891       -3.9106316645
  H         3.0932960343       -2.8793813334       -3.4602443020
  H         3.3727089537       -2.1772225027       -4.7041811820
  O         6.8739850155        0.7215637664       -1.6441048797
  H         6.2869102177        0.0431774214       -1.2503540074
  H         6.5887774511        0.3887157882       -2.5378214387
  O        -4.8768971593       -2.7625180999        3.6827119035
  H        -3.8478716544       -2.6278360002        3.4800645218
  H        -4.7589537815       -3.7427992499        3.7275221212
  O        -0.1135970230       -5.3939372861        5.5286422444
  H        -0.3582868999       -4.6134681155        6.1547975942
  H        -0.9793310423       -5.4937929049        5.1070433194
  O         1.4353203295        4.0694422279        3.4754806330
  H         1.1205471682        3.3132730948        3.0612213245
  H         0.6397597546        4.1265146914        4.1370578837
  O        -2.3876639129       -3.7649968557       -0.3131669339
  H        -1.4804093012       -3.9045424765       -0.7815008646
  H        -2.1726258699       -2.7756857610       -0.1968952237
  O        -0.4443231340       -3.5490799154       -2.2457493295
  H        -0.5758998013       -2.7328620452       -1.6984828924
  H         0.5450630554       -3.5881810158       -1.9966295696
  O         4.9088202121       -0.9705784628       -0.2715881087
  H         4.5672329264       -1.9208937960       -0.2713136186
  H         4.0831610064       -0.5690449774       -0.6449150708
  O        -0.9718379290       -1.3810758572       -0.2806768117
  H        -1.0090530621       -0.4064447456       -0.1425511844
  H        -0.3763725360       -1.3946034963        0.5075651299
  O         3.7237839581        4.0958059102        0.9859230335
  H         2.8152313868        3.9163827856        0.5729277270
  H         3.9078170494        3.2467127910        0.4142159914
      96
 i =     300, E =       -0.5355933054
  O        -3.4737161215        4.4099599863        1.8850568194
  H        -2.9638542471        5.1393682324        1.3266795186
  H        -4.3598319012        4.5835649119        1.5050158148
  O         0.5955514141        3.8324991166        0.0891861478
  H         0.3633222954        2.9413564773        0.5025806563
  H         0.7461028714        3.5501133836       -0.8688503333
  O        -0.9584071136        1.6268113840        3.6007646248
  H        -1.9461504877        1.6187828508        3.8991339553
  H        -0.4845213889        1.6003301806        4.4283778752
  O        -2.2419272527       -2.0542327500       -6.0515331535
  H        -1.5859990263       -1.9227935025       -6.6916911827
  H        -2.2637308703       -2.9945567539       -6.0133435844
  O         4.2230663870       -0.2099075058        2.4095230167
  H         4.7241681473       -0.4628911600        1.5809625642
  H         4.1102640209       -1.1172792543        2.8354532039
  O         3.7108816743       -3.2094090024       -0.9449676988
  H         3.6072175318       -4.0790699214       -0.6336778989
  H         4.0102550012       -3.3898289637       -1.8448403221
  O        -3.7966125558       -4.6364219241       -2.5516526033
  H        -3.3961155946       -5.4148720510       -1.9893619261
  H        -2.9094870352       -4.2811085321       -2.5556395723
  O        -0.0988958581        1.1227131613       -3.4258860763
  H         0.3201247988        2.0057918469       -3.3317762705
  H        -0.5432735076        1.1955624181       -2.6172048404
  O         4.3958084613        3.7094610917        3.9673679671
  H         3.9135909267        2.8911840905        4.1795058332
  H         4.0613826810        3.8375629781        3.0012243912
  O         6.1431249166        1.5295928089        4.1402660658
  H         5.9385283163        2.4566750148        3.8322908542
  H         5.5316164796        1.0974873495        3.4659370482
  O         0.9909503732       -0.5641473043       -5.5003055603
  H         1.8061857572       -0.7699984963       -5.0478228330
  H         0.4171169737       -0.3531603063       -4.6925142377
  O        -0.4770063313        1.4330097736        0.7927695634
  H        -0.1930143752        0.4692387518        0.9757521191
  H        -0.6810370950        1.6164940009        1.7415060948
  O         3.9053463446       -0.0411350607       -2.0054841810
  H         4.7836753002       -0.0663500063       -2.5274589140
  H         3.4582429148       -0.4397704128       -2.8293486355
  O        -2.8407096407        3.0171393915       -0.9653175221
  H        -2.4200423922        3.0462009123       -0.0786221721
  H        -2.5989931364        2.0609483141       -1.0271053722
  O        -0.0451014570       -1.2468797832        1.6688280250
  H         0.1660689919       -2.2039139499        1.6088619433
  H         0.2649152992       -1.1225691426        2.5663991868
  O         1.5040744850        3.3820080208       -2.5769476487
  H         1.8630281368        3.8899002172       -3.2581519472
  H         2.3425593696        3.1413196183       -2.1537508321
  O         3.6588178432       -4.8116125505       -3.6149868904
  H         4.5025964573       -4.8634523395       -3.0108322622
  H         4.1161052104       -5.2084632227       -4.3733393524
  O        -3.9141313916       -0.4552235856       -3.6701441470
  H        -3.4152328599       -1.2877206384       -3.8909664709
  H        -3.4564024513        0.0106206005       -4.4223217397
  O        -2.6927263288        5.1642122266       -5.4893029127
  H        -2.9268209226        4.6832654646       -6.3642225168
  H        -3.4769018517        4.7826651211       -5.0969414385
  O         4.0162123531        2.8063461946       -1.3970900340
  H         3.8617291472        1.8296114221       -1.6431415631
  H         4.9734217669        2.8482384679       -1.5073056439
  O         0.5252611826       -3.7848778107        1.6945969784
  H         0.5184493515       -4.5025651346        1.0240391927
  H         0.7719012349       -4.5775233209        2.3459307982
  O         2.1847689020        1.5136676272        3.1627519289
  H         2.8020829918        0.9664688296        2.7910606928
  H         1.6148897490        0.8117650374        3.5925454539
  O         2.9332736604       -1.9626142220       -4.0418021422
  H         3.0713669113       -2.9449721441       -3.8486054076
  H         3.7111921298       -1.9167789201       -4.6256943959
  O         6.9157035893        0.2330676948       -1.2623556888
  H         6.3249029535       -0.3949218748       -0.7585368595
  H         6.5098028936        0.1404974964       -2.1255190155
  O        -5.0525237337       -2.2958196410        3.9718260109
  H        -4.0125673287       -2.0457932696        3.9077894650
  H        -4.9237728533       -3.2711041521        3.7703556016
  O        -0.2663361442       -5.3642870902        5.4059356887
  H        -0.2999120633       -4.6935467307        6.1752094314
  H        -0.8309876361       -4.8789730924        4.7593314612
  O         1.0737772151        3.9705019458        3.1166295558
  H         1.3977837575        3.0546727120        3.4057106403
  H         0.6797422559        4.1621143024        3.9926385223
  O        -2.1896017215       -3.6980556965        0.1551865230
  H        -1.5082201423       -4.0610438765       -0.4372378945
  H        -2.1302460940       -2.8041624009       -0.2691458249
  O        -0.3367889908       -3.7161267401       -1.9046470388
  H        -0.2167648518       -2.7139554984       -1.6450954498
  H         0.6504034346       -3.9360851878       -1.8926943352
  O         5.1926448226       -1.3685510145        0.1304186874
  H         4.6546863820       -2.2588271726       -0.0868427821
  H         4.5335543899       -0.9791799634       -0.4719649544
  O        -0.8724694469       -1.3642822873       -1.0797458040
  H        -1.5526352362       -0.6540625788       -1.2303190673
  H        -0.6660530698       -1.0635993973       -0.1550730668
  O         3.4498267375        4.0654024348        1.3841423280
  H         2.4818791640        4.0391321748        1.5029312827
  H         3.3815410454        3.3712731822        0.7166242735
      96
 i =     400, E =       -0.5459757915
  O        -3.5931326883        4.1629368655        1.6482564963
  H        -3.2600920804        5.0481280487        1.1292165459
  H        -3.3123245216        3.5548088604        0.9388476288
  O         0.6027594882        4.1558295489       -0.1465798123
  H         0.2332440068        3.5214797315        0.5425664827
  H         1.0229814843        3.5167028530       -0.7873127702
  O        -0.9757547645        1.5023029673        3.6665611486
  H        -2.0004983230        1.3852084592        3.5623920496
  H        -0.6598715587        1.2396412027        4.5712678041
  O        -2.0773952210       -2.1131182784       -5.0967337446
  H        -1.1429588630       -1.7585885172       -5.2134997808
  H        -2.1596505679       -3.1045792055       -5.1589419076
  O         4.4918775245        0.0541354369        2.4956394044
  H         4.6807842609       -0.2413361307        1.5626186504
  H         4.3308993174       -0.9107083342        2.8519122525
  O         3.4217381716       -3.8438381815       -0.7830668854
  H         3.1783768514       -4.6177887768       -0.2556375558
  H         4.0704464885       -4.1707009429       -1.4262884109
  O        -4.1015267362       -4.6843165422       -2.0859698926
  H        -3.5068026273       -5.4883699458       -2.1175791809
  H        -3.6888596850       -4.2355669625       -1.3586608440
  O         0.4950150547        0.9649817037       -3.9571688245
  H         1.2033798208        1.6020859510       -3.8216272468
  H         0.5540262124        0.6418662889       -3.0365476181
  O         4.5084288113        3.7005408514        3.6459681353
  H         3.6780391833        3.5472913544        3.1635658568
  H         4.9860935766        4.0033679319        2.7795628916
  O         6.1020176642        1.4807055187        4.2195348225
  H         5.6889265809        2.3799567981        4.0779248438
  H         5.5691556640        1.0316689559        3.4470174257
  O         0.7838750592       -0.9953127791       -5.8296498487
  H         1.3684405956       -1.5588768648       -5.3074183964
  H         0.7998830300       -0.2466011869       -5.1987883451
  O        -0.6314797660        1.8312141581        1.0193270384
  H        -0.4296889206        0.8707549180        0.8885113232
  H        -0.7093875448        1.8012996406        2.0413232700
  O         3.8835803719       -0.1458610988       -2.0202727448
  H         4.5618667850       -0.1413107614       -2.8017335959
  H         3.3134215874       -0.8577354519       -2.4450221250
  O        -2.9820627409        2.8623222436       -0.7363249833
  H        -2.0451320408        3.1140407593       -0.4495568552
  H        -2.7703841683        1.8762975351       -0.6837200680
  O        -0.1358018392       -0.9180677247        1.4776182956
  H        -0.1596660156       -1.9512471916        1.4218843046
  H         0.2374768687       -0.8992657501        2.3703836390
  O         1.6550551154        2.9131553278       -2.3221237554
  H         1.6072691578        3.5459179689       -3.0436468607
  H         2.6046934510        2.6871772597       -2.1491628259
  O         3.5958342814       -4.4498032144       -3.9142631086
  H         4.4204358456       -4.3720983522       -3.3397026482
  H         3.8880375455       -5.2656007359       -4.4007361358
  O        -3.6012566052       -0.1221011430       -3.4795308053
  H        -3.0685313250       -0.6252272314       -4.1025473977
  H        -3.7759188406        0.6769248042       -4.0793301792
  O        -2.8550998272        5.1363046841       -5.5009798324
  H        -3.0079842572        4.9231792173       -6.4566863432
  H        -3.7422043985        4.7026595147       -5.3105746687
  O         4.2690117237        2.5242933429       -1.5880144067
  H         4.1797779093        1.4794207048       -1.6821486508
  H         5.1760069440        2.6607856025       -1.2692988447
  O        -0.0142017224       -3.5321972686        1.3649415313
  H         0.3122219326       -4.2539582291        0.7651479454
  H         0.3100169396       -3.9118914182        2.2055485767
  O         2.2829359088        1.7728755904        3.4377045603
  H         3.0790839254        1.4838269484        3.1055423813
  H         1.7537738181        0.9775490415        3.3653122591
  O         2.8204071215       -1.8069209395       -3.9225535458
  H         2.9402415017       -2.6904742219       -3.5232202795
  H         3.4201987070       -2.0149208048       -4.7363108551
  O         7.1262615716        0.0500042186       -1.0798516021
  H         6.3869895334       -0.4693913195       -0.6892017877
  H         6.9205673387       -0.0850196411       -2.0176166156
  O        -5.1575061305       -2.3763427022        3.6378597957