      96
 i =       0, E =       -0.5558517331
  O         0.0004929629       -0.0002543299       -0.0000358183
  H         0.0001882396       -0.0000897375       -0.0000988132
  H        -0.0001007045       -0.0001693316       -0.0002545639
  O         0.0006316029       -0.0004086639        0.0002672659
  H         0.0005895209       -0.0001922323        0.0001330741
  H         0.0002135116       -0.0001800655        0.0004673068
  O         0.0000234433       -0.0001757122        0.0003102856
  H        -0.0004385643       -0.0003183005       -0.0001828321
  H        -0.0003295139        0.0003275143       -0.0002363838
  O        -0.0000404895        0.0006539049       -0.0001505859
  H        -0.0001088327        0.0005404679       -0.0001571877
  H         0.0002449680       -0.0000644797        0.0004295854
  O         0.0000248003        0.0001492670       -0.0003180711
  H        -0.0001960080       -0.0000356927        0.0003271850
  H        -0.0000196468        0.0005835838        0.0000614770
  O         0.0006181504        0.0002191587        0.0001400840
  H        -0.0000053428       -0.0004110025        0.0003900100
  H        -0.0000790020        0.0001621848        0.0001633968
  O         0.0001961522        0.0000427586       -0.0000152889
  H        -0.0001825296        0.0003101639        0.0001972402
  H         0.0002005788       -0.0000006342        0.0006818971
  O        -0.0003263058        0.0000413225       -0.0000828380
  H         0.0004697208        0.0000435885       -0.0001260851
  H        -0.0008311778       -0.0000430275        0.0000955621
  O        -0.0003057499        0.0002806140       -0.0001469286
  H         0.0004736394        0.0003423979        0.0004464031
  H         0.0001804832       -0.0004305236        0.0001944951
  O         0.0001263182        0.0000536736        0.0000553482
  H        -0.0004925978       -0.0000348709        0.0002328492
  H        -0.0003713567        0.0000469646       -0.0000717690
  O        -0.0000086759        0.0004262634        0.0003294616
  H        -0.0001905093        0.0002172563        0.0003560047
  H         0.0006465484        0.0003809318        0.0004146721
  O         0.0001244119       -0.0002529863       -0.0001778900
  H         0.0005978694        0.0002516181       -0.0001596912
  H        -0.0003619303       -0.0003010976        0.0000948250
  O        -0.0005083567        0.0002874847       -0.0000955886
  H        -0.0001248383        0.0005800839        0.0002068777
  H         0.0000258679       -0.0000585809        0.0000308355
  O        -0.0004363461        0.0000167684        0.0000862185
  H         0.0000750804        0.0000727620       -0.0004461422
  H        -0.0001383419       -0.0002951512       -0.0001269307
  O        -0.0001508585       -0.0001108478       -0.0000811794
  H         0.0001008565       -0.0001603508        0.0000146713
  H        -0.0004881511       -0.0004744299        0.0000194700
  O        -0.0000637969       -0.0001263408       -0.0002568584
  H         0.0002050717        0.0001107675       -0.0005852422
  H         0.0001647703        0.0004817676        0.0000406179
  O        -0.0004531199       -0.0000464873       -0.0000737354
  H         0.0002148585       -0.0001201125        0.0001411733
  H         0.0001940239        0.0000141195        0.0000269730
  O         0.0003670986       -0.0002803438        0.0003934513
  H         0.0001812872        0.0006741712        0.0003508259
  H         0.0000391638        0.0000661587        0.0001101027
  O        -0.0004580442       -0.0000559276       -0.0004795514
  H        -0.0002366729       -0.0002582767       -0.0000233188
  H         0.0003976704       -0.0000328388       -0.0001251327
  O         0.0005689753       -0.0001120086        0.0004519704
  H         0.0000860187       -0.0000071288        0.0004656075
  H         0.0001149806       -0.0001089010       -0.0000732201
  O        -0.0001333846        0.0002431010        0.0003729019
  H         0.0001677601       -0.0003036664        0.0000817228
  H        -0.0000392149        0.0000849283       -0.0000748072
  O         0.0003265054       -0.0002174138        0.0002828871
  H        -0.0002699833        0.0003128620       -0.0003795714
  H         0.0000525421       -0.0002277176        0.0004468011
  O        -0.0002098160        0.0002627883        0.0004245919
  H         0.0003961602        0.0002502676        0.0005326333
  H         0.0001746385        0.0001026963        0.0000952451
  O         0.0003232195        0.0001210222       -0.0006760637
  H         0.0002402483        0.0003190828        0.0007253514
  H        -0.0000085763       -0.0002548965       -0.0001193069
  O         0.0002054303       -0.0005106905        0.0002414936
  H        -0.0001834080        0.0004640998       -0.0002064056
  H        -0.0002456753       -0.0001566950       -0.0001042949
  O        -0.0002256821       -0.0005340802       -0.0000751416
  H        -0.0002821847       -0.0004237345        0.0006021109
  H        -0.0001683470        0.0000548644       -0.0004080820
  O         0.0001309203       -0.0000654877       -0.0003221181
  H         0.0000717321        0.0006559211       -0.0001297825
  H        -0.0001402505        0.0002918586        0.0006317914
  O        -0.0005782722        0.0001542133       -0.0002663339
  H        -0.0000305289       -0.0005070543        0.0000259503
  H        -0.0001736711        0.0003869673        0.0002992836
  O        -0.0002992321       -0.0000941414       -0.0001238089
  H        -0.0001057267        0.0001778635        0.0003345652
  H        -0.0000223274        0.0005123698       -0.0000103300
  O         0.0002721680       -0.0002135557        0.0002231691
  H         0.0005309405        0.0003707815       -0.0002836698
  H        -0.0000664846        0.0002067737       -0.0000419845
  O        -0.0001889525        0.0000204951       -0.0002860503
  H         0.0001608282        0.0000778100        0.0000597914
  H        -0.0000970454        0.0000376645       -0.0005630602
  O        -0.0000887229        0.0002311237       -0.0002526374
  H        -0.0003054219        0.0000947840        0.0004444425
  H         0.0001277973        0.0001010613       -0.0000291967
      96
 i =     100, E =       -0.5572057735
  O         0.0002057461        0.0003237540        0.0003385768
  H         0.0007185904        0.0003462319        0.0009302940
  H         0.0001430365       -0.0002324986       -0.0001307517
  O        -0.0000059671       -0.0004552996       -0.0000213191
  H        -0.0003534201        0.0006193297        0.0001838364
  H         0.0002653042       -0.0000022529       -0.0001002296
  O         0.0001884915       -0.0001067547       -0.0001923328
  H        -0.0000554428        0.0003142815       -0.0006248112
  H         0.0001668614        0.0002308392       -0.0002407248
  O         0.0002484639       -0.0001541563       -0.0004203674
  H        -0.0004204557        0.0002977846        0.0018029719
  H         0.0008168905        0.0003154110        0.0010174144
  O         0.0003538808       -0.0002073202        0.0002768530
  H        -0.0007887661        0.0003873934        0.0003476722
  H        -0.0002480476        0.0003993011        0.0005763596
  O         0.0002895352       -0.0001701148        0.0001345251
  H         0.0010397779        0.0000844265       -0.0003294845
  H        -0.0002941376        0.0001289274       -0.0002758712
  O        -0.0000104364       -0.0000614737       -0.0001895159
  H         0.0002217880       -0.0012326474       -0.0005868553
  H        -0.0005635256        0.0003311190       -0.0006319033
  O        -0.0000527383        0.0001247373       -0.0000509109
  H         0.0007962636        0.0004062822       -0.0014242634
  H         0.0007135113       -0.0008177708        0.0006357034
  O        -0.0000816028       -0.0003112098        0.0000146799
  H         0.0007060508       -0.0013113981       -0.0000261826
  H        -0.0005803630       -0.0010227392       -0.0006264257
  O        -0.0002023276       -0.0000352541        0.0001043917
  H        -0.0004947050        0.0008400174       -0.0002223362
  H        -0.0003675982       -0.0010508831        0.0000887251
  O        -0.0001095894       -0.0000683495       -0.0000967565
  H         0.0007866161       -0.0000531665       -0.0008927343
  H        -0.0005158686        0.0001169861        0.0002596577
  O         0.0001268133       -0.0000427812        0.0001862432
  H         0.0007595814       -0.0004375001       -0.0005052471
  H        -0.0008400385       -0.0000665366       -0.0003464134
  O         0.0000765857       -0.0000403682       -0.0000191465
  H         0.0009147029       -0.0005229835        0.0002014955
  H        -0.0003954339       -0.0003937756        0.0005899352
  O        -0.0002439405        0.0003265145        0.0002296258
  H        -0.0002857071        0.0009333330        0.0001982880
  H        -0.0005298352       -0.0001098696       -0.0000531088
  O         0.0002820682        0.0004819619        0.0001101773
  H        -0.0000521659       -0.0001042960       -0.0007482377
  H         0.0002846647        0.0005674850       -0.0002877700
  O         0.0003294180        0.0003431248        0.0000126402
  H        -0.0002402553        0.0008254631        0.0003730122
  H         0.0005356398       -0.0010478739        0.0005831129
  O        -0.0001496642        0.0003318192       -0.0000437550
  H         0.0001218777        0.0007192191       -0.0002426241
  H        -0.0016224628       -0.0003731546        0.0005022792
  O        -0.0005604057        0.0002045489       -0.0000256780
  H        -0.0008149655        0.0002361174       -0.0000478274
  H        -0.0006522984       -0.0000593079       -0.0000834036
  O        -0.0003100550        0.0001648340       -0.0000759545
  H         0.0000527385        0.0007434811       -0.0011372001
  H         0.0001730870       -0.0003435812       -0.0002477266
  O         0.0002581451        0.0002720643        0.0001796339
  H        -0.0001857171       -0.0004910518        0.0002105297
  H        -0.0005184324       -0.0003198530        0.0009228622
  O        -0.0000947300        0.0000850296       -0.0001295660
  H        -0.0004102786        0.0008152003       -0.0007185687
  H        -0.0010632615        0.0003887409        0.0011947404
  O         0.0000993378       -0.0003936055        0.0000211076
  H        -0.0001911059        0.0008495350       -0.0010448825
  H         0.0005966001        0.0003806779        0.0006488467
  O         0.0001792662       -0.0000682291       -0.0001536901
  H         0.0011989660        0.0000549149        0.0004730089
  H         0.0002368841        0.0006787831        0.0006225304
  O         0.0001135436        0.0002658008       -0.0000424585
  H         0.0000054941        0.0005963888        0.0004182623
  H        -0.0000171362        0.0007559889       -0.0006629517
  O         0.0000343950       -0.0003802152        0.0000295095
  H        -0.0002187125        0.0006773648       -0.0004151999
  H        -0.0004956667       -0.0006606404        0.0001245066
  O        -0.0003370755       -0.0003727256       -0.0003389654
  H        -0.0003149155       -0.0003764082        0.0002274675
  H        -0.0013547890       -0.0006758011       -0.0000050651
  O         0.0000552253        0.0001034785       -0.0000996855
  H         0.0008572170        0.0014059476       -0.0004139501
  H         0.0004183094        0.0002461830        0.0011280566
  O        -0.0001454890        0.0000120932       -0.0000436461
  H        -0.0005349068       -0.0015629291        0.0003109373
  H        -0.0005686559        0.0005576955        0.0002739252
  O        -0.0003417216       -0.0001818900        0.0001795549
  H        -0.0005799921       -0.0005100513       -0.0004103049
  H         0.0003579934       -0.0005185008       -0.0009483489
  O        -0.0000885810       -0.0001595564       -0.0000024189
  H         0.0004528825       -0.0004195669       -0.0007726746
  H        -0.0012215118        0.0000991072        0.0005281651
  O         0.0001217196       -0.0001385580        0.0000881867
  H        -0.0009088865       -0.0004943875        0.0000399491
  H         0.0008216051       -0.0006677691       -0.0001423415
  O         0.0000187584        0.0001409310        0.0000915258
  H        -0.0005924900        0.0021703834       -0.0012131694
  H         0.0012071879        0.0000124084        0.0003344780
      96
 i =     200, E =       -0.5417481393
  O         0.0001460182       -0.0001723345       -0.0000645244
  H         0.0002569826       -0.0000324658       -0.0004600682
  H        -0.0003595422        0.0006109857        0.0000224134
  O         0.0000013907        0.0000487463       -0.0003302474
  H        -0.0009547540        0.0002819252       -0.0007080877
  H        -0.0005542915        0.0002138808       -0.0009498884
  O         0.0004398945       -0.0001223870       -0.0001416226
  H         0.0007432653       -0.0007043670       -0.0002782285
  H         0.0003794248       -0.0004737154       -0.0004141567
  O         0.0002370615        0.0000841612        0.0001965101
  H        -0.0002846297       -0.0009306252        0.0001372157
  H        -0.0008077189        0.0005603391       -0.0006421465
  O        -0.0000659109        0.0001950530        0.0002026978
  H        -0.0009184853        0.0005971017       -0.0005583070
  H        -0.0010775252       -0.0001458714       -0.0004169369
  O        -0.0001697493        0.0001883923       -0.0001333424
  H        -0.0003359243        0.0005522064       -0.0017133574
  H        -0.0001226680       -0.0000066933       -0.0004843619
  O        -0.0001178948        0.0001821093        0.0002566546
  H        -0.0002718016       -0.0008020827       -0.0001867349
  H        -0.0011511640       -0.0001480208        0.0000119067
  O        -0.0000541988       -0.0000297703        0.0002403926
  H         0.0004452631       -0.0001831440       -0.0001164706
  H         0.0007099151       -0.0004370841        0.0002281751
  O        -0.0000688789       -0.0001963711       -0.0000313177
  H        -0.0003910512        0.0004974858       -0.0005021271
  H        -0.0000089422       -0.0001399493       -0.0008977921
  O        -0.0002261122       -0.0001721888        0.0000128593
  H         0.0005547707        0.0001194738        0.0001882919
  H         0.0003551039        0.0001391529       -0.0007244869
  O         0.0001407227       -0.0001752418       -0.0003442424
  H        -0.0011116749        0.0003732045       -0.0000649730
  H        -0.0002471687        0.0007230139       -0.0006490752
  O        -0.0000353527       -0.0000011549       -0.0002039962
  H        -0.0003352970       -0.0015381112       -0.0002720389
  H        -0.0011703532       -0.0002052510       -0.0013806627
  O         0.0000603690       -0.0001708117        0.0005101581
  H         0.0007863173        0.0005027818        0.0003524604
  H         0.0000410410       -0.0002523008       -0.0006774312
  O         0.0001755553        0.0000537858        0.0000393274
  H         0.0011014735       -0.0001253165       -0.0001177058
  H        -0.0001267911       -0.0008391564       -0.0007525809
  O         0.0000057578        0.0001195640        0.0000032983
  H        -0.0007738557        0.0001495177       -0.0007295256
  H        -0.0008595455        0.0000730892        0.0001571172
  O         0.0001939055        0.0004832250       -0.0000080131
  H         0.0008725247       -0.0002232993        0.0003022865
  H         0.0000647027       -0.0003364624        0.0008510144
  O         0.0000219361       -0.0000956588       -0.0001550851
  H        -0.0004434187        0.0001567611        0.0001667575
  H        -0.0010168054        0.0000985159       -0.0001657221
  O         0.0000147611        0.0001204100       -0.0001275576
  H         0.0002039556       -0.0013156672        0.0010521404
  H        -0.0001674010       -0.0002163254       -0.0005539962
  O        -0.0002230063       -0.0002536103       -0.0002344818
  H        -0.0009991868       -0.0002334947       -0.0002786436
  H         0.0012270700        0.0004345586        0.0012976351
  O        -0.0001389501        0.0002404645        0.0000395864
  H         0.0000783870        0.0000373762       -0.0005231437
  H        -0.0008501007        0.0009424578        0.0005243350
  O        -0.0002219474       -0.0001558773       -0.0001743735
  H         0.0001647632        0.0007203956       -0.0001985171
  H        -0.0003722855       -0.0004964358        0.0004656304
  O         0.0002885455        0.0001047013        0.0001364752
  H        -0.0009463970        0.0009703994        0.0007370042
  H        -0.0005896988        0.0011578802       -0.0005566837
  O        -0.0000432318        0.0000834742        0.0001031713
  H        -0.0004744607        0.0001684417        0.0004043286
  H        -0.0007219186       -0.0006926373        0.0010849711
  O        -0.0001997370       -0.0000398054        0.0002343099
  H        -0.0003849524        0.0001526735        0.0001583313
  H         0.0007434299        0.0009680848       -0.0002553425
  O         0.0000559225        0.0001777625        0.0000955909
  H         0.0007498912        0.0014131735        0.0001163644
  H        -0.0003334382       -0.0001819246        0.0002707249
  O         0.0000390991        0.0000995087        0.0000000966
  H         0.0002158639        0.0005048885       -0.0000848968
  H         0.0001157294       -0.0007561483       -0.0000056177
  O        -0.0002730782       -0.0002797704        0.0003555797
  H         0.0006449912       -0.0004484065        0.0000997008
  H         0.0001306651        0.0014038418       -0.0011261653
  O         0.0004171802       -0.0002264533        0.0000219173
  H        -0.0007716051       -0.0000645066       -0.0001325028
  H         0.0004549197       -0.0002543542       -0.0000098446
  O        -0.0002075071       -0.0005018481        0.0000103830
  H        -0.0007974913       -0.0005234246       -0.0005890897
  H        -0.0004379608       -0.0005474767        0.0002439091
  O         0.0000811555        0.0001032372        0.0000054193
  H         0.0007462624       -0.0012017784        0.0004670794
  H         0.0001193584        0.0010769223        0.0007683729
  O         0.0000652691        0.0003334694       -0.0001771215
  H        -0.0002349059        0.0003803378       -0.0005856435
  H         0.0003802392        0.0001361868       -0.0001326203
  O         0.0002194632       -0.0001594703        0.0001033052
  H        -0.0001950386       -0.0002177159        0.0016818901
  H         0.0004494291        0.0006951316        0.0000925508
      96
 i =     300, E =       -0.5355933054
  O        -0.0001228957       -0.0003330230        0.0000024063
  H        -0.0008185043        0.0010907992       -0.0006419690
  H         0.0002377435       -0.0008828914       -0.0004085577
  O        -0.0002028065        0.0002015761       -0.0000625707
  H        -0.0001635150       -0.0006389202       -0.0008228754
  H        -0.0005849075        0.0006167772        0.0000967398
  O        -0.0000316860       -0.0002169424       -0.0001783638
  H         0.0006981955        0.0000388511        0.0005597307
  H        -0.0010625644       -0.0003070299       -0.0002439018
  O        -0.0000701913       -0.0000580427        0.0004788851
  H        -0.0000601849       -0.0014434973        0.0006574819
  H         0.0000747351        0.0005469154       -0.0009010048
  O         0.0000641112        0.0000305064        0.0002539799
  H         0.0006575081       -0.0002176185        0.0001636542
  H        -0.0013081210        0.0000441590       -0.0001074649
  O        -0.0002609646       -0.0001383902        0.0000236357
  H        -0.0001408882        0.0002638175       -0.0008759940
  H         0.0006118766       -0.0001751924        0.0000841514
  O        -0.0000991615       -0.0000181027        0.0001133949
  H         0.0004153567        0.0000921284        0.0011045946
  H        -0.0003816701       -0.0004968636        0.0007140796
  O         0.0002587171       -0.0000260138       -0.0002145571
  H         0.0006998062       -0.0001278870        0.0005197711
  H         0.0006133919       -0.0002265909        0.0002659428
  O         0.0003351597        0.0003675206        0.0000506070
  H        -0.0007758590        0.0006733593       -0.0012143851
  H         0.0006993896       -0.0004000152       -0.0010214781
  O         0.0002938501        0.0000584710       -0.0000771074
  H         0.0004817151       -0.0002769070        0.0000501833
  H         0.0003712489        0.0002961843        0.0001455534
  O         0.0001082419       -0.0001628236       -0.0000664000
  H        -0.0004326225        0.0001590153       -0.0004457554
  H        -0.0004081588        0.0005294169       -0.0008505668
  O         0.0001116917        0.0000944222        0.0002069422
  H        -0.0009122224       -0.0001971540        0.0005858208
  H         0.0001020032       -0.0008102651        0.0002155430
  O         0.0002359571       -0.0000603193        0.0001606297
  H         0.0006534422        0.0007380934       -0.0006165684
  H        -0.0003787078        0.0007707068       -0.0000501459
  O        -0.0001459298        0.0000062119       -0.0001650404
  H         0.0001604250       -0.0006109726        0.0000083546
  H         0.0004659081       -0.0005416768        0.0004195550
  O        -0.0000269339       -0.0001431083       -0.0000837445
  H         0.0002129183        0.0001174802       -0.0006241678
  H        -0.0001308583        0.0005702015       -0.0004961676
  O        -0.0000655536       -0.0002855179        0.0001718479
  H         0.0002162988       -0.0000854279        0.0007134051
  H         0.0000546492       -0.0006135309       -0.0016481177
  O         0.0001310446       -0.0000107092       -0.0003374306
  H        -0.0006281340       -0.0006642967        0.0000983062
  H         0.0009804625       -0.0002156007       -0.0001814975
  O        -0.0000762128       -0.0000501857        0.0002845529
  H         0.0004747699        0.0001513703        0.0002916882
  H         0.0005204792        0.0001081408       -0.0002844887
  O        -0.0002726483        0.0001056440        0.0003245244
  H         0.0007234466        0.0009126682       -0.0002124874
  H        -0.0011137424       -0.0008316755       -0.0002775992
  O         0.0002975588        0.0000054396       -0.0001075723
  H         0.0000031388       -0.0002788171        0.0000333017
  H        -0.0001460922        0.0002061304        0.0002107569
  O        -0.0002804102        0.0005447968       -0.0000561674
  H        -0.0001824405        0.0009596546        0.0001278189
  H        -0.0004446360        0.0007056079       -0.0009517845
  O        -0.0000697099        0.0000063996        0.0001275565
  H        -0.0011892730        0.0002309178       -0.0000094012
  H        -0.0004015390        0.0008372512        0.0001349035
  O         0.0000122182        0.0001089970       -0.0002679590
  H         0.0006089621        0.0013024033       -0.0006767644
  H         0.0005846695       -0.0003642367        0.0000426710
  O         0.0002355882       -0.0002070321       -0.0000320000
  H         0.0000726860        0.0002824305        0.0005631870
  H         0.0001753615        0.0001167765        0.0003616532
  O        -0.0002072293        0.0002394607        0.0000065039
  H        -0.0012517684       -0.0000401175        0.0005889893
  H         0.0011368402        0.0005352463        0.0001847882
  O         0.0001534450       -0.0000236020       -0.0000234365
  H        -0.0005048363       -0.0010101218        0.0005078301
  H        -0.0003437009        0.0007391614        0.0003111598
  O        -0.0000181285        0.0000593848       -0.0001486654
  H        -0.0005089865       -0.0007300285        0.0000824986
  H        -0.0012665082        0.0004948593       -0.0005102649
  O        -0.0000968271        0.0001866782        0.0002856708
  H        -0.0005552348        0.0012302617        0.0006079524
  H         0.0003783353       -0.0006588462       -0.0006694296
  O         0.0002194928       -0.0000549550        0.0000451809
  H         0.0007355056        0.0002952579       -0.0002769478
  H        -0.0002734629        0.0011813021        0.0003286308
  O        -0.0001348663       -0.0001388935       -0.0000831486
  H         0.0011279441       -0.0006068112        0.0010182919
  H         0.0001537140       -0.0002031567       -0.0002983917
  O         0.0001491387       -0.0003497581       -0.0003818006
  H         0.0000910423        0.0002491831       -0.0001977386
  H        -0.0004585942       -0.0000025553       -0.0004965490
  O        -0.0002530997       -0.0000221877       -0.0000399241
  H         0.0000347994       -0.0003544650        0.0012014924
  H        -0.0011147482        0.0014362412       -0.0003282408
      96
 i =     400, E =       -0.5459757915
  O         0.0000797435       -0.0002789466       -0.0000193300
  H        -0.0006728471       -0.0000558261       -0.0002365772
  H         0.0008148169        0.0005230516       -0.0009469937
  O         0.0002168946       -0.0000651224       -0.0002501993
  H        -0.0004822722        0.0008491198       -0.0006814086
  H         0.0002146695        0.0007107518        0.0006812498
  O        -0.0002626317        0.0001991459       -0.0001061585
  H         0.0006343551       -0.0000280312        0.0006131555
  H         0.0003215257       -0.0002163071       -0.0008103557
  O         0.0003483624       -0.0001258714        0.0004064286
  H         0.0006560160       -0.0012866969       -0.0008274313
  H        -0.0003753247        0.0002580267        0.0003550925
  O         0.0000445694       -0.0003216173       -0.0001555375
  H        -0.0009341002        0.0003495837       -0.0003099606
  H         0.0002110026        0.0002105813        0.0002243353
  O        -0.0000267888       -0.0001915986        0.0004755164
  H         0.0008598804       -0.0011042294       -0.0002190177
  H        -0.0003892600       -0.0000570560        0.0006633563
  O        -0.0003634377        0.0001820947        0.0001083566
  H        -0.0002211695        0.0001173401        0.0013835581
  H         0.0006479405       -0.0006234272        0.0001895284
  O         0.0003128642       -0.0001318276       -0.0000049098
  H         0.0003137325       -0.0004761490        0.0001210299
  H         0.0003519972       -0.0006755558        0.0002666511
  O        -0.0002033659       -0.0001253882       -0.0000321545
  H        -0.0006449933       -0.0009344915       -0.0000049380
  H         0.0000566458        0.0005066890       -0.0002574575
  O         0.0000842615        0.0002498655        0.0002611974
  H        -0.0007439152       -0.0000097672        0.0001552610
  H         0.0001351919       -0.0000856417        0.0001478510
  O         0.0000233883       -0.0001943938        0.0001228589
  H        -0.0003659018       -0.0010714147       -0.0005365109
  H        -0.0007923945       -0.0006348403       -0.0002211447
  O        -0.0002854250       -0.0000759861        0.0001641600
  H        -0.0006084207        0.0007148867       -0.0003033940
  H         0.0002582931       -0.0010922999        0.0005031245
  O         0.0000257439       -0.0001561254       -0.0003378191
  H        -0.0000343377       -0.0005140212       -0.0009187969
  H         0.0000048389       -0.0001191993       -0.0004048511
  O         0.0001480423       -0.0000675329        0.0002887156
  H         0.0002928373       -0.0010496822        0.0005213843
  H         0.0007076565        0.0001919446        0.0006709585
  O         0.0000816040        0.0000769533       -0.0001593979
  H        -0.0007977495       -0.0005735646       -0.0012529436
  H        -0.0004154916        0.0000417780        0.0003364508
  O        -0.0001900884       -0.0000159885       -0.0000724211
  H         0.0003040999        0.0000911272       -0.0007873246
  H        -0.0006959450        0.0000085852       -0.0003452310
  O         0.0000889803        0.0001139498       -0.0000828996
  H        -0.0005692859       -0.0005449133       -0.0001398454
  H         0.0008750222        0.0001603158       -0.0003900244
  O        -0.0001154557        0.0002572045        0.0003057689
  H        -0.0006177632        0.0017144073       -0.0008997634
  H        -0.0002169564        0.0005467194        0.0005254786
  O         0.0002696043       -0.0000524570       -0.0002079877
  H        -0.0005589491        0.0007727376        0.0000004856
  H        -0.0007637027        0.0000878081       -0.0008142718
  O         0.0001960610       -0.0002357839        0.0000713247
  H         0.0002422137       -0.0001484620       -0.0007992075
  H        -0.0004215020        0.0007185832        0.0001575583
  O        -0.0003072410        0.0001332916        0.0001443895
  H         0.0002417388        0.0004790548       -0.0004263993
  H        -0.0000799273        0.0006142756       -0.0007256601
  O        -0.0000814626        0.0001238395        0.0001396598
  H         0.0003878913        0.0003725205       -0.0011133983
  H         0.0005957403        0.0003888363       -0.0001634401
  O         0.0000319504        0.0000612636        0.0000842458
  H        -0.0004667414        0.0003796969       -0.0012309881
  H        -0.0004060609       -0.0001469380       -0.0004464766
  O         0.0001795588       -0.0001901684        0.0001538972
  H         0.0006262393       -0.0004866415        0.0002640123
  H        -0.0000409978       -0.0007731309        0.0000465476
  O        -0.0000936395       -0.0000440901       -0.0000996095