     153
 i =        0, time =        0.000, E =      -898.2799254016
  O         8.8547036835        0.5426273213        4.2272907174
  H         7.9891646443        0.7354810860        4.6706857962
  H         9.3840214802       -0.0626012289        4.8589389494
  O         5.7342306474       -2.2328242136       13.8975999733
  H         6.6783402926       -1.9086265785       13.9149082048
  H         5.4943745029       -2.5891307461       14.8023174750
  O         2.2624656317        5.4795873405        1.2411241538
  H         1.9105029074        6.2314721897        1.8481725990
  H         2.7294683990        4.9010607214        1.8862815265
  O         5.9593745010       10.2024713294        6.7020427558
  H         6.7107061280        9.9556391680        7.2838897892
  H         5.1200635249       10.2150949618        7.2272658134
  O         5.2768125282        8.5179992791        4.7430448884
  H         5.6653106475        9.0417635367        5.4725380263
  H         5.5731339905        7.5775076769        4.8292097527
  O        -0.2974815691       -2.6665939025        1.5955874680
  H         0.4843997229       -2.0828817364        1.2754375608
  H        -1.0357664476       -2.0684528569        1.9142182648
  O        -1.1315804475        7.1142420346       -0.5446388738
  H        -2.0361683228        7.2249112537       -0.9107986767
  H        -0.8387276332        7.7514128206        0.1418403661
  O         2.8670602848       -2.2673554063       -1.0841135485
  H         3.3537149135       -3.1237191731       -0.9222932118
  H         1.9434351900       -2.4982485859       -1.4377270764
  O        -0.2654689307        4.9079420210        0.4841802988
  H        -0.4513632432        5.7977230658        0.0165507807
  H         0.7003215640        4.9741861129        0.8525724998
  O         7.4116549780        2.9514588980       10.0954870808
  H         6.8342473342        2.9808616865       10.9048732865
  H         8.2751682598        2.7126797953       10.4824464933
  O         0.5052658050        3.6686938398        9.3526730909
  H         0.3133326174        3.9149959321       10.2877585683
  H         0.3404012198        4.4510121398        8.8007578958
  O         6.3771197954        1.0404279430        5.3478441371
  H         6.0192781803        0.2525261232        5.8141902346
  H         5.7068453435        1.3487268891        4.6024871764
  O        -0.4277613723        1.6497819712        2.7623713955
  H        -1.0374724465        1.0021700846        3.1875735273
  H        -1.0318001218        2.4160907250        2.5443633169
  O         3.0106970308        2.9402198516       11.0571888520
  H         3.6259618132        2.1774244302       10.7064397696
  H         2.6920605988        3.4492774252       10.2358548197
  O         1.9321054804       -1.0995332551       12.5278677267
  H         2.3511672982       -1.6460751916       11.7148892259
  H         1.6264509334       -0.1471732380       12.2407785487
  O        -3.0565793557       -1.3892819065        2.2262772142
  H        -3.0006689596       -0.6695190036        2.9047100284
  H        -3.3158498423       -0.8903367790        1.4034927400
  O         9.3175083067        1.9321658575       11.6478736997
  H        10.1708824575        1.6089872163       11.7262656231
  H         9.2504664049        2.5748942519       12.4093765376
  O         4.1052038238       -4.7806381490       -0.1814417932
  H         4.0838281882       -5.2347964424       -1.0683285668
  H         3.4106976540       -5.2844827391        0.2964736908
  O         4.4378820182       -0.0455739221        1.6889621028
  H         3.4996769643       -0.3364840936        1.7081937635
  H         4.9289133701       -0.8715548135        1.9602753082
  O         5.5936292063        1.9066748564        7.9307954378
  H         6.4482175479        2.2044372854        8.4542584871
  H         5.7046185831        1.9941082217        6.9543675609
  O        -0.8667049536       -1.1397935218        5.7494995807
  H        -0.1278277551       -1.1107958857        5.0975181273
  H        -0.5490200737       -0.4705628613        6.3738128372
  O         0.4138652212        4.6885352712        4.9177978195
  H         0.1205437795        5.5738215458        4.4894630207
  H         0.2334236044        4.8455755026        5.9606533871
  O         5.5756453826        3.2962067227        0.6954448655
  H         5.1886943252        2.7329540052        1.4628349474
  H         4.6876240031        3.4579432334        0.2567407596
  O        -3.4769892315       -1.6394230661        8.3125838502
  H        -2.7076855278       -1.6356260483        7.6897554462
  H        -3.3228258520       -2.4213414445        8.9028155133
  O         0.4634261584       -2.6024563324        9.3927594352
  H        -0.1197015709       -3.3063378652        9.8034995177
  H         0.0729073679       -1.6979152311        9.4986532577
  O        -0.5163461836        1.9306711130        7.7196252872
  H        -1.0653255054        2.4977485421        7.1512875686
  H        -0.2085573856        2.5911443258        8.3759528752
  O         6.6252935481        7.2761741270        0.7746091192
  H         5.8791554407        6.7947044198        0.3470867958
  H         6.2688758008        8.0489546151        1.2288606845
  O         3.7402185654       -0.5118318300        8.4977366017
  H         3.5013044882       -1.2052617265        9.2162109345
  H         4.2248419178        0.2062690851        8.9765523688
  O        -1.5644483178        7.6379237666        7.0789333685
  H        -2.0075547926        6.9362782399        6.6183733122
  H        -1.1989382085        8.2388715431        6.4698184535
  O         9.3721195743        3.7603158123        2.0355154738
  H        10.1690238528        4.2103837467        1.6274726453
  H         8.6032957700        4.3693944271        2.1129296703
  O         8.2068432190        5.4858283829        6.5533033278
  H         7.7209540097        5.2981277487        7.4270970609
  H         8.6720278734        4.6525055507        6.2370809860
  O        -3.8785118800       -0.0139952843       11.4173614989
  H        -3.4338502688       -0.4891429146       10.6916340966
  H        -3.2521100707        0.7522186505       11.5382858756
  O         4.8865627382        0.8535063722       10.6566402069
  H         5.8574579095        0.6596724061       10.5236182942
  H         4.6764878528        0.4157090807       11.5383722967
  O         7.0620310732        5.0977457889        2.2604549151
  H         6.8105358093        5.9464397878        1.8459334488
  H         6.4646937954        4.5085647910        1.7819557694
  O         1.3887093425       -1.0245801713        3.9512627316
  H         1.8569476121       -0.1623557276        4.2093456253
  H         1.4348537434       -1.0911138302        2.9440985727
  O         2.5865338390       -3.0097094023        5.3403969531
  H         3.5324713701       -3.0709313660        5.0153468396
  H         2.2204355413       -2.2546462386        4.7884729571
  O        -3.4704650414       -3.7940200087       -1.4054325385
  H        -3.9542140846       -3.8075827297       -0.5575925330
  H        -3.7233755110       -4.6390796545       -1.9246914489
  O         0.9733065825        7.1080392225        3.3521575610
  H         1.5171737589        7.5875172322        4.0358782730
  H         0.2938075603        7.7104307057        3.0142334749
  O         1.6772986133        0.4679777466        7.1706657708
  H         2.4321381854        0.2091198103        7.7361717927
  H         1.2364558010        1.2658259079        7.5059844477
  O        -1.7404136260        3.2020078894        5.5369548632
  H        -2.1142780570        2.5238328341        4.9125585671
  H        -0.9649213836        3.6579188618        5.1579704100
  O         0.3669847470        5.3663561029        7.4784922025
  H         1.1357949829        6.1082574293        7.5621827923
  H        -0.4781773879        5.8318589230        7.5868431053
  O         7.0260795111        5.4063573746        9.1176638620
  H         6.0652572628        5.5663841447        9.1041308148
  H         7.1339556889        4.4086121173        9.4635424840
  O         4.1307002547        5.8112325847        8.7101507982
  H         3.4660562538        6.4189813248        8.2526363579
  H         3.8304481899        4.8827675790        8.4753432617
  O        -0.5935117011       -0.1717666677        9.9790728581
  H        -0.5535216654        0.4253966103        9.1917394617
  H         0.0974301001        0.1956701407       10.4716085938
  O         0.8848636579        1.1981418600        0.5459272084
  H         0.6283019210        1.5622609172        1.4902306256
  H         1.5658536035        1.8412733870        0.2532450962
  O         5.8776516270        5.6641360226        4.6688107086
  H         6.4130484964        5.3664260535        3.8870003760
  H         6.5260746375        5.6012627519        5.4153194655
  O         3.2819359488        3.3538285996        7.9340582366
  H         4.1903383029        2.8162693159        8.1306612921
  H         3.4134202210        3.4816987730        6.9801241052
  O         1.9627979478       -4.0608050206        7.5916330996
  H         1.4497465855       -3.3139060869        8.0280322578
  H         2.2308753389       -3.7060355097        6.6791305913
  O         2.5090716761        1.3498280909        4.7653207611
 Si         3.3152419527        2.6745628532        4.1577104081
  O         3.9537569593        3.6364662441        5.3682298888
  O         4.5016090930        2.1540552945        3.1825006769
  O         2.3431459957        3.6501051885        3.2723270583
  H         2.3016323450        1.1500523115        5.7075041425
  H         4.4050178925        1.2457349209        2.7431902060
  H         1.7993582774        4.2276199914        3.8963077809
  H         4.5476768123        4.4234625630        5.1073219836
