       0       0.000         0.043203276        85.000000000        -0.206517813        -0.162910768         0.000000000
       5      10.000         0.043251804        85.095474717        -0.206522876        -0.162910709         0.010700000
      10      20.000         0.043261773        85.115089345        -0.206541106        -0.162910684         0.010700000
      15      30.000         0.043238623        85.069542108        -0.206580905        -0.162910643         0.010700000
      20      40.000         0.043180018        84.954240378        -0.206638646        -0.162910648         0.010700000
      25      50.000         0.043079381        84.756242222        -0.206702111        -0.162910659         0.010600000
      30      60.000         0.042931117        84.464542316        -0.206756698        -0.162910630         0.010700000
      35      70.000         0.042736665        84.081969239        -0.206792347        -0.162910630         0.010600000
      40      80.000         0.042507906        83.631897640        -0.206807850        -0.162910604         0.010500000
      45      90.000         0.042262917        83.149896345        -0.206806768        -0.162910512         0.010500000
      50     100.000         0.042021620        82.675158599        -0.206795470        -0.162910511         0.012800000
      55     110.000         0.041800977        82.241055593        -0.206778666        -0.162910442         0.010600000
      60     120.000         0.041608755        81.862868547        -0.206753926        -0.162910483         0.010500000
      65     130.000         0.041440319        81.531481586        -0.206709770        -0.162910525         0.011200000
      70     140.000         0.041282626        81.221229445        -0.206630309        -0.162910592         0.010600000
      75     150.000         0.041113730        80.888936529        -0.206493849        -0.162910647         0.010600000
      80     160.000         0.040911856        80.491759380        -0.206282644        -0.162910685         0.010600000
      85     170.000         0.040657451        79.991231614        -0.205984473        -0.162910687         0.010600000
      90     180.000         0.040339208        79.365106841        -0.205596897        -0.162910658         0.010600000
      95     190.000         0.039956292        78.611741204        -0.205128603        -0.162910588         0.011800000
     100     200.000         0.039517146        77.747746062        -0.204597552        -0.162910506         0.010800000
     105     210.000         0.039040895        76.810750249        -0.204031020        -0.162910421         0.011500000
     110     220.000         0.038553361        75.851553864        -0.203461655        -0.162910329         0.010500000
     115     230.000         0.038085322        74.930714191        -0.202925325        -0.162910228         0.010700000
     120     240.000         0.037665800        74.105328549        -0.202454468        -0.162910169         0.010600000
     125     250.000         0.037317744        73.420549039        -0.202074242        -0.162910113         0.010500000
     130     260.000         0.037055589        72.904773279        -0.201800321        -0.162910123         0.010600000
     135     270.000         0.036883646        72.566483998        -0.201637300        -0.162910129         0.010500000
     140     280.000         0.036796650        72.395324885        -0.201579697        -0.162910152         0.010600000
     145     290.000         0.036785266        72.372927452        -0.201617239        -0.162910203         0.010500000
     150     300.000         0.036837005        72.474721334        -0.201735780        -0.162910244         0.010600000
     155     310.000         0.036940403        72.678150692        -0.201921721        -0.162910256         0.010600000
     160     320.000         0.037087306        72.967174604        -0.202164241        -0.162910315         0.010500000
     165     330.000         0.037272745        73.332015122        -0.202454838        -0.162910354         0.010500000
     170     340.000         0.037494748        73.768794121        -0.202787687        -0.162910358         0.010500000
     175     350.000         0.037753574        74.278019642        -0.203159043        -0.162910345         0.010700000
     180     360.000         0.038049645        74.860522725        -0.203565234        -0.162910408         0.010500000
     185     370.000         0.038378516        75.507556408        -0.203997891        -0.162910491         0.010800000
     190     380.000         0.038730045        76.199170480        -0.204443436        -0.162910526         0.010500000
     195     390.000         0.039086727        76.900921081        -0.204881372        -0.162910598         0.010600000
     200     400.000         0.039425067        77.566587475        -0.205285086        -0.162910729         0.010800000
     205     410.000         0.039716326        78.139622692        -0.205623101        -0.162910820         0.010600000
     210     420.000         0.039929306        78.558648029        -0.205862673        -0.162910960         0.010700000
     215     430.000         0.040034258        78.765135659        -0.205973148        -0.162911057         0.010800000
     220     440.000         0.040008497        78.714451374        -0.205931949        -0.162911159         0.012800000
     225     450.000         0.039841198        78.385300460        -0.205729811        -0.162911151         0.010500000
     230     460.000         0.039538457        77.789674497        -0.205376411        -0.162911088         0.011500000
     235     470.000         0.039125563        76.977329974        -0.204902677        -0.162910980         0.012100000
     240     480.000         0.038644661        76.031182971        -0.204358089        -0.162910919         0.010700000
     245     490.000         0.038152149        75.062192090        -0.203807677        -0.162910738         0.010700000
     250     500.000         0.037711545        74.195329105        -0.203323660        -0.162910608         0.010600000
     255     510.000         0.037385844        73.554530540        -0.202976207        -0.162910467         0.010700000
     260     520.000         0.037230913        73.249712803        -0.202825616        -0.162910342         0.011400000
     265     530.000         0.037285280        73.356677760        -0.202911047        -0.162910301         0.010900000
     270     540.000         0.037559067        73.895337754        -0.203238951        -0.162910364         0.010600000
     275     550.000         0.038031473        74.824769905        -0.203781180        -0.162910495         0.010700000
     280     560.000         0.038656273        76.054028781        -0.204481993        -0.162910645         0.010800000
     285     570.000         0.039375240        77.468554846        -0.205273270        -0.162910839         0.011500000
     290     580.000         0.040130929        78.955331020        -0.206089082        -0.162910945         0.010700000
     295     590.000         0.040876821        80.422830106        -0.206876975        -0.162910985         0.010500000
     300     600.000         0.041581897        81.810028146        -0.207603377        -0.162911048         0.010600000
     305     610.000         0.042227297        83.079815378        -0.208249157        -0.162911066         0.010700000
     310     620.000         0.042804330        84.215094444        -0.208808134        -0.162910982         0.010700000
     315     630.000         0.043310919        85.211781153        -0.209283265        -0.162910944         0.010700000
     320     640.000         0.043748502        86.072700558        -0.209681689        -0.162910935         0.010900000
     325     650.000         0.044115927        86.795588792        -0.210008593        -0.162910893         0.012900000
     330     660.000         0.044409861        87.373887208        -0.210266743        -0.162910903         0.010800000
     335     670.000         0.044623190        87.793598662        -0.210454072        -0.162910895         0.010800000
     340     680.000         0.044747610        88.038389164        -0.210566226        -0.162910920         0.011300000
     345     690.000         0.044777121        88.096450675        -0.210599424        -0.162910949         0.010600000
     350     700.000         0.044707166        87.958817282        -0.210549484        -0.162910977         0.010500000
     355     710.000         0.044538466        87.626909483        -0.210415704        -0.162911034         0.010500000
     360     720.000         0.044271222        87.101121467        -0.210195096        -0.162911054         0.010800000
     365     730.000         0.043904377        86.379374969        -0.209882103        -0.162911059         0.010500000
     370     740.000         0.043435739        85.457356237        -0.209469267        -0.162911142         0.010600000
     375     750.000         0.042862552        84.329643226        -0.208947906        -0.162911168         0.010600000
     380     760.000         0.042186553        82.999654279        -0.208314230        -0.162911116         0.010600000
     385     770.000         0.041419172        81.489875782        -0.207575371        -0.162911123         0.010600000
     390     780.000         0.040586776        79.852183561        -0.206754878        -0.162911045         0.010800000
     395     790.000         0.039732213        78.170879256        -0.205895117        -0.162910930         0.010500000
     400     800.000         0.038911049        76.555284761        -0.205053503        -0.162910733         0.010600000
     405     810.000         0.038186591        75.129954679        -0.204297900        -0.162910602         0.010600000
     410     820.000         0.037618103        74.011487962        -0.203693470        -0.162910435         0.010600000
     415     830.000         0.037248801        73.284906360        -0.203289950        -0.162910378         0.010600000
     420     840.000         0.037099026        72.990231839        -0.203113228        -0.162910394         0.010600000
     425     850.000         0.037162835        73.115774170        -0.203160917        -0.162910425         0.011100000
     430     860.000         0.037411735        73.605469542        -0.203405862        -0.162910575         0.010600000
     435     870.000         0.037804212        74.377646005        -0.203805415        -0.162910691         0.010600000
     440     880.000         0.038294445        75.342151768        -0.204311078        -0.162910807         0.010700000
     445     890.000         0.038840247        76.415986535        -0.204877035        -0.162910918         0.010700000
     450     900.000         0.039406885        77.530814340        -0.205464646        -0.162911006         0.011000000
     455     910.000         0.039967752        78.634289171        -0.206043736        -0.162911083         0.010600000
     460     920.000         0.040504719        79.690740688        -0.206593492        -0.162911127         0.010600000
     465     930.000         0.041005927        80.676840239        -0.207100251        -0.162911177         0.010700000
     470     940.000         0.041462846        81.575801549        -0.207554966        -0.162911202         0.010600000
     475     950.000         0.041867406        82.371750951        -0.207949892        -0.162911214         0.010600000
     480     960.000         0.042212469        83.050641525        -0.208278991        -0.162911289         0.010800000
     485     970.000         0.042487371        83.591496430        -0.208533179        -0.162911282         0.010600000
     490     980.000         0.042678971        83.968459371        -0.208701617        -0.162911296         0.010700000
     495     990.000         0.042772798        84.153057228        -0.208771753        -0.162911347         0.011200000
     500    1000.000         0.042754025        84.116122804        -0.208730601        -0.162911361         0.010700000
     505    1010.000         0.042611670        83.836047773        -0.208568572        -0.162911449         0.010600000
     510    1020.000         0.042338304        83.298215983        -0.208278747        -0.162911459         0.010500000
     515    1030.000         0.041936647        82.507977878        -0.207863832        -0.162911430         0.011300000
     520    1040.000         0.041421242        81.493947615        -0.207337715        -0.162911355         0.010600000
     525    1050.000         0.040818897        80.308869190        -0.206726208        -0.162911225         0.010600000
     530    1060.000         0.040167921        79.028110567        -0.206066563        -0.162911085         0.012800000
     535    1070.000         0.039516880        77.747222790        -0.205406437        -0.162910977         0.012900000
     540    1080.000         0.038916386        76.565786182        -0.204795839        -0.162910906         0.012800000
     545    1090.000         0.038409224        75.567972980        -0.204277279        -0.162910810         0.011800000
     550    1100.000         0.038022912        74.807925275        -0.203878499        -0.162910802         0.013100000
     555    1110.000         0.037765369        74.301224329        -0.203607610        -0.162910804         0.012900000
     560    1120.000         0.037627451        74.029879241        -0.203455810        -0.162910896         0.011600000
     565    1130.000         0.037589806        73.955815642        -0.203403851        -0.162911041         0.010900000
     570    1140.000         0.037626489        74.027986814        -0.203425663        -0.162911129         0.010800000
     575    1150.000         0.037708546        74.189429628        -0.203492161        -0.162911166         0.010800000
     580    1160.000         0.037807372        74.383862942        -0.203574611        -0.162911241         0.010600000
     585    1170.000         0.037896281        74.558786368        -0.203646133        -0.162911325         0.010800000
     590    1180.000         0.037953469        74.671301630        -0.203684725        -0.162911383         0.010800000
     595    1190.000         0.037963750        74.691528896        -0.203675058        -0.162911400         0.011200000
     600    1200.000         0.037921654        74.608706978        -0.203611634        -0.162911362         0.010600000
     605    1210.000         0.037831860        74.432043121        -0.203499191        -0.162911310         0.010700000
     610    1220.000         0.037706907        74.186205057        -0.203350274        -0.162911265         0.010500000
     615    1230.000         0.037563464        73.903989042        -0.203181596        -0.162911246         0.010600000
     620    1240.000         0.037417485        73.616783757        -0.203008994        -0.162911210         0.010500000
     625    1250.000         0.037280396        73.347068964        -0.202843838        -0.162911149         0.012300000
     630    1260.000         0.037159974        73.110145129        -0.202693842        -0.162911152         0.010600000
     635    1270.000         0.037060824        72.915072958        -0.202563372        -0.162911160         0.010900000
     640    1280.000         0.036983814        72.763560306        -0.202453067        -0.162911090         0.010900000
     645    1290.000         0.036923956        72.645792350        -0.202357928        -0.162911053         0.010800000
     650    1300.000         0.036872822        72.545188674        -0.202269503        -0.162911086         0.010800000
     655    1310.000         0.036817368        72.436086047        -0.202174640        -0.162911119         0.010600000
     660    1320.000         0.036746920        72.297484840        -0.202062718        -0.162911103         0.010600000
     665    1330.000         0.036656331        72.119254518        -0.201928804        -0.162911125         0.010600000
     670    1340.000         0.036549240        71.908559571        -0.201776583        -0.162911097         0.010500000
     675    1350.000         0.036437538        71.688793275        -0.201618020        -0.162911057         0.010700000
     680    1360.000         0.036335212        71.487472696        -0.201467210        -0.162911032         0.012900000
     685    1370.000         0.036253593        71.326891286        -0.201335488        -0.162911027         0.010700000
     690    1380.000         0.036198789        71.219068117        -0.201228962        -0.162911074         0.010600000
     695    1390.000         0.036172654        71.167647895        -0.201149320        -0.162911072         0.010600000
     700    1400.000         0.036174956        71.172177483        -0.201096290        -0.162911053         0.010600000
     705    1410.000         0.036205920        71.233098290        -0.201070056        -0.162911012         0.010600000
     710    1420.000         0.036264634        71.348614112        -0.201069696        -0.162911013         0.010700000
     715    1430.000         0.036349565        71.515710908        -0.201093645        -0.162911046         0.010700000
     720    1440.000         0.036455948        71.725012790        -0.201137034        -0.162911056         0.010700000
     725    1450.000         0.036576492        71.962177474        -0.201192573        -0.162911087         0.010700000
     730    1460.000         0.036701984        72.209075769        -0.201251023        -0.162911145         0.010700000
     735    1470.000         0.036820994        72.443220208        -0.201300837        -0.162911153         0.010600000
     740    1480.000         0.036923662        72.645214342        -0.201332154        -0.162911155         0.010600000
     745    1490.000         0.037000685        72.796752127        -0.201335677        -0.162911205         0.010600000
     750    1500.000         0.037045517        72.884956790        -0.201304732        -0.162911235         0.010500000
     755    1510.000         0.037054490        72.902610721        -0.201235585        -0.162911221         0.010700000
     760    1520.000         0.037030930        72.856258095        -0.201131527        -0.162911156         0.010700000
     765    1530.000         0.036986353        72.768554834        -0.201004127        -0.162911113         0.010700000
     770    1540.000         0.036940099        72.677553910        -0.200872777        -0.162911114         0.010600000
     775    1550.000         0.036918856        72.635758914        -0.200764073        -0.162911016         0.010600000
     780    1560.000         0.036949850        72.696737077        -0.200705425        -0.162910956         0.010700000
     785    1570.000         0.037056295        72.906162153        -0.200720005        -0.162910915         0.010700000
     790    1580.000         0.037250546        73.288339829        -0.200820087        -0.162910927         0.010700000
     795    1590.000         0.037531076        73.840265842        -0.201003930        -0.162910987         0.010800000
     800    1600.000         0.037881628        74.529957707        -0.201254950        -0.162911030         0.010700000
     805    1610.000         0.038275719        75.305309284        -0.201546439        -0.162911070         0.010700000
     810    1620.000         0.038680797        76.102278492        -0.201845780        -0.162911167         0.010600000
     815    1630.000         0.039066000        76.860143680        -0.202122021        -0.162911204         0.012800000
     820    1640.000         0.039407917        77.532845286        -0.202351954        -0.162911210         0.010800000
     825    1650.000         0.039693414        78.094543866        -0.202522754        -0.162911201         0.010600000
     830    1660.000         0.039921006        78.542319212        -0.202633277        -0.162911170         0.010800000
     835    1670.000         0.040100276        78.895022021        -0.202693388        -0.162911075         0.010600000
     840    1680.000         0.040247745        79.185158759        -0.202719977        -0.162911030         0.010500000
     845    1690.000         0.040383872        79.452981172        -0.202733581        -0.162910937         0.010600000
     850    1700.000         0.040530012        79.740503872        -0.202755709        -0.162910856         0.010700000
     855    1710.000         0.040702944        80.080736426        -0.202803238        -0.162910836         0.010700000
     860    1720.000         0.040911049        80.490171856        -0.202884582        -0.162910899         0.010600000
     865    1730.000         0.041152213        80.964648992        -0.202997545        -0.162910949         0.010600000
     870    1740.000         0.041414071        81.479839024        -0.203129872        -0.162911065         0.010600000
     875    1750.000         0.041677811        81.998732690        -0.203262669        -0.162911117         0.010900000
     880    1760.000         0.041921612        82.478397751        -0.203374313        -0.162911201         0.010800000
     885    1770.000         0.042125844        82.880211614        -0.203445119        -0.162911234         0.010700000
     890    1780.000         0.042273977        83.171656335        -0.203458627        -0.162911247         0.010600000
     895    1790.000         0.042356348        83.333716868        -0.203405290        -0.162911266         0.010600000
     900    1800.000         0.042371860        83.364235921        -0.203283925        -0.162911219         0.010600000
     905    1810.000         0.042329049        83.280006453        -0.203103278        -0.162911217         0.010600000
     910    1820.000         0.042247024        83.118627802        -0.202882588        -0.162911162         0.010700000
     915    1830.000         0.042153246        82.934124806        -0.202649745        -0.162911100         0.010700000
     920    1840.000         0.042080244        82.790496767        -0.202437711        -0.162911004         0.010700000
     925    1850.000         0.042055027        82.740883662        -0.202274054        -0.162910913         0.010900000
     930    1860.000         0.042092191        82.814001622        -0.202174023        -0.162910939         0.010700000
     935    1870.000         0.042188642        83.003764642        -0.202134823        -0.162910929         0.010600000
     940    1880.000         0.042332526        83.286848404        -0.202144989        -0.162910967         0.010700000
     945    1890.000         0.042512530        83.640996197        -0.202193276        -0.162910977         0.010700000
     950    1900.000         0.042724057        84.057162030        -0.202275041        -0.162910951         0.010700000
     955    1910.000         0.042969565        84.540185299        -0.202392581        -0.162910938         0.010700000
     960    1920.000         0.043253463        85.098739035        -0.202549873        -0.162910954         0.010800000
     965    1930.000         0.043575116        85.731574007        -0.202745680        -0.162910938         0.011100000
     970    1940.000         0.043925178        86.420300773        -0.202970070        -0.162910962         0.010700000
     975    1950.000         0.044285991        87.130178659        -0.203204932        -0.162911051         0.010900000
     980    1960.000         0.044630578        87.808133994        -0.203422861        -0.162911093         0.010600000
     985    1970.000         0.044929640        88.396522672        -0.203594681        -0.162911190         0.010600000
     990    1980.000         0.045156984        88.843808676        -0.203694380        -0.162911234         0.014000000
     995    1990.000         0.045293167        89.111741925        -0.203703163        -0.162911234         0.010600000
    1000    2000.000         0.045327267        89.178830653        -0.203610958        -0.162911207         0.010700000
