     108
 i =       0, E =       -0.2065178131
 AR        -8.5386901295      -15.5816257771        2.8566367230
 AR         1.5300730483        9.2852817904       11.1777824543
 AR        11.9910225120       -7.4882532957       -9.9654530635
 AR       -12.6782400030       -3.3410587201        4.0747109782
 AR        -1.7704625428       -0.2324594643       13.2012946017
 AR         8.0176137119       -2.5724958773       -4.1272055475
 AR         8.5784951723        4.0139666462        5.5736882198
 AR        -3.8920067928      -10.2930917801       -6.9864023229
 AR        -3.3545716056      -16.1119619277       16.1358515626
 AR         9.7895715510      -16.2628264195       -5.6979085707
 AR         0.5051434954       -4.2297841576       12.4854171634
 AR        15.5632243940       -7.9804890509        2.2099470855
 AR        -5.4074164400       -2.6476445711       -0.6814852126
 AR        -0.0983719068       -1.7367400486       -7.1191554512
 AR         7.5265578133       -5.5296996967      -12.8886150439
 AR        -5.4565541100        0.5644457544        2.0390251010
 AR       -11.8590998267        3.4040744639        3.7268793393
 AR        16.7175362589       -7.4713237735       -1.0227447667
 AR       -20.4572129717       -5.7370080772        4.8184508638
 AR        14.8485522289       -1.4160863305      -16.0839111491
 AR         8.0437947051       -8.1403381484       -4.7554312381
 AR        12.2738439612       -1.7058983467       12.9622486200
 AR        -0.4218518064      -11.1177490353       20.4545363333
 AR         2.2819434170        5.9208391754      -11.1732449878
 AR       -13.9648466918        8.7792388576        8.0737337048
 AR       -10.3147439499        6.3852956124      -15.3411964215
 AR        -2.7189996465      -21.4890074469       10.8678096819
 AR       -17.7923879123      -10.7840901151       -4.8395499652
 AR         5.2349413851       -6.7922290679       -6.0718769081
 AR         3.5244875064      -10.1225951872        2.9682904866
 AR       -16.1586602902       -5.1827431639        8.5707269408
 AR        -5.8098282442        4.3264019350        2.5559910187
 AR         6.2916010908       27.5741337288       15.0246410590
 AR        -3.1874171171       23.2996469100      -16.8034854143
 AR        -4.2022575504        9.3603772594       16.5891306155
 AR        -7.6439290875       -9.5243238441      -29.8228731471
 AR         0.5453525258       13.9240554617       -0.3837867803
 AR        -5.2743288681       -5.5381378179      -20.3014703747
 AR        22.9921850153        6.7861937167       -1.9828990529
 AR        19.7720034229      -10.2373337687       -3.3308181857
 AR         0.1567769029        6.5963011811        8.9074906251
 AR         5.5793738186        0.2331062231        1.0275228782
 AR        -3.6434356180        3.9644888101       25.8752124557
 AR        -0.2484916981       20.4489725648       -2.5122044535
 AR         2.9362670860        0.8598122134        9.9674330724
 AR         3.3038431569       -2.9242126659       -6.3492704237
 AR        -6.1549023524       -6.8496148008       -6.4620414461
 AR       -23.2388291762      -28.1213094673        7.1372104719
 AR         4.1152629133        2.7156414337       -0.8520300437
 AR        14.6194148692        2.8081518226        1.9360197598
 AR        18.9667954753       16.5700888519       13.3423444868
 AR       -28.6124161417        2.8435363708       -9.2360197333
 AR        -5.9700459456      -16.2230172568       -9.2292806184
 AR        10.0481077883       16.3854819570        5.1257871135
 AR        -7.2250850783        6.3461542223       -0.6807574637
 AR       -12.0138912984      -10.4653110277       -6.4343478758
 AR        -8.5316992690       12.8976589213       -0.8903612524
 AR       -25.3700692951        3.3311990643       -7.9391768568
 AR         2.9016348064      -12.9668181360       -7.9490775926
 AR       -13.5963940986       11.9896580952       -3.5506875487
 AR        13.1416029517        4.9714378345       -3.5084125273
 AR       -13.3295460956       16.0410015778        7.0528279758
 AR        -4.1506833549      -19.5111913798       21.0255971828
 AR        -8.4294427082       16.3065160594      -18.2887817285
 AR         0.7886363339        9.5901683682       22.1772606194
 AR        -2.9260677863       -7.9740805489      -21.3519900334
 AR        -6.3995986598       -4.5628046180        2.7553357109
 AR        -4.0442387809      -14.9275965394       -5.5856147374
 AR       -27.8524912514        0.8020521807       -3.0266378971
 AR        -2.8396652965        7.1162712125        6.1854733276
 AR        -8.6832788761       -6.6708830049       -9.1581545022
 AR       -11.9620847111       -2.2095624961       -1.8397997537
 AR        22.6848553724       12.2047209420        1.0123879784
 AR         6.2950101204       -0.7697124713       -6.9145433225
 AR         3.4999554679       -8.0070492014       -0.4265266319
 AR         0.3851548123       17.8769740351      -17.4065226240
 AR        21.2288869131       10.2327102036      -13.0872200859
 AR         1.2208258700        5.8359743507       16.8450099267
 AR        -7.0875403622        6.0341297186      -22.3251445580
 AR        -0.0244265849       17.4693605251        7.3711673097
 AR        15.0981822679        9.8894051625       -8.4938274014
 AR        -6.5787768834      -15.0484532075       14.7230359830
 AR        -2.2266666663       -4.1842190033       -2.4700788711
 AR         5.2062106985      -22.6565181989        7.3947567481
 AR        -8.8582880041       -2.4751066199        2.3544139853
 AR         6.7520235454        0.4303913836        5.4349249526
 AR        11.9263127546        8.1326725415        2.4008113296
 AR       -14.5507562394       -0.4715406772      -13.7058431105
 AR        14.1157692422       -2.9896859318       24.6842798176
 AR        -3.3510733620       -0.6813625467       -7.3703991683
 AR         7.7926987644        3.3068761509       -0.0732378021
 AR        -1.1328905910      -17.1672835836      -12.9126466372
 AR        -9.2105434952      -10.4846510043       -8.3848579779
 AR        -6.4784877796       -3.9073665308      -10.6499668410
 AR         0.9878749792       13.7363585341        5.0720965980
 AR         8.8609781479        9.9610388779        1.0937379580
 AR        -6.5806876684      -20.4019345282       -7.2893560818
 AR        -0.4489770627       19.5862520160       11.0351198969
 AR         7.3605693747       -2.6959428168        7.2608187460
 AR        13.8791344547       12.1903465249        1.2488988544
 AR        -3.6578275372       19.7829061762      -11.8161510230
 AR         1.4972945094       -5.3928997725        1.9244584967
 AR        18.5861605634        3.0086836640        2.0644013101
 AR         6.2073076798       -9.4741839882        5.5493050775
 AR         3.6505483789        3.4318105413       -4.3116081362
 AR         2.6786261646        2.2930060515        5.9850296215
 AR        24.5113122275        4.0073317098       13.1412501215
 AR        -0.6002332620        3.6282563137        6.3841128472
     108
 i =       5, E =       -0.2065228755
 AR        -8.5447370337      -15.5883022839        2.8826010123
 AR         1.5092928387        9.2909741219       11.1990390194
 AR        11.9746615522       -7.4814606537       -9.9522770081
 AR       -12.6818652669       -3.3212671560        4.0735549393
 AR        -1.7785914712       -0.2210243752       13.1752615242
 AR         7.9984720451       -2.5823178581       -4.1414491564
 AR         8.5877889995        3.9991750121        5.5687641160
 AR        -3.8626380052      -10.2961130046       -6.9881535290
 AR        -3.3308684633      -16.1140154496       16.1384154223
 AR         9.7805781245      -16.2399531527       -5.6946515313
 AR         0.5093741090       -4.2449061776       12.4705194078
 AR        15.5531155569       -7.9648478479        2.2079198686
 AR        -5.3799228476       -2.6460962372       -0.6538613205
 AR        -0.0895278773       -1.7327139788       -7.1163294017
 AR         7.5033277333       -5.5125095966      -12.8869538622
 AR        -5.4476420619        0.5685770428        2.0458743816
 AR       -11.8536480343        3.3995501672        3.7161591500
 AR        16.7228889818       -7.4616088087       -1.0145873284
 AR       -20.4496258104       -5.7065585618        4.8010221968
 AR        14.8428078139       -1.4221305832      -16.0565266469
 AR         8.0415323897       -8.1456494412       -4.7913892044
 AR        12.2643070726       -1.7036464871       12.9422803595
 AR        -0.4106042890      -11.1223769810       20.4663839742
 AR         2.2946568236        5.9357211336      -11.1607102768
 AR       -13.9796075701        8.7814995917        8.0750119105
 AR       -10.3091055408        6.3825843098      -15.3573542878
 AR        -2.7213664526      -21.4718858948       10.8460277232
 AR       -17.7844527097      -10.7854511355       -4.8381596159
 AR         5.2496835979       -6.7767779784       -6.0794454601
 AR         3.5307559546      -10.1053017519        2.9944481673
 AR       -16.1360744644       -5.1642716420        8.5719007360
 AR        -5.8205768268        4.3141968210        2.5811181288
 AR         6.2990506723       27.5526636486       15.0015774381
 AR        -3.2006412972       23.2905672772      -16.8199394983
 AR        -4.1891842709        9.3498113362       16.5745325016
 AR        -7.6177376752       -9.5132831314      -29.8089530527
 AR         0.5407931603       13.9178300465       -0.4048990172
 AR        -5.2740979499       -5.5341331831      -20.2901423534
 AR        22.9844815950        6.7603874001       -1.9887575812
 AR        19.7485698762      -10.2409167776       -3.3373852611
 AR         0.1498288468        6.5873918060        8.9070314916
 AR         5.5685439672        0.2305989821        1.0049981021
 AR        -3.6643296037        3.9598641021       25.8590209426
 AR        -0.2558435997       20.4263400790       -2.5029605210
 AR         2.9381801296        0.8300853049        9.9700851501
 AR         3.3229079079       -2.9235012247       -6.3680491364
 AR        -6.1555750761       -6.8526195505       -6.4503030860
 AR       -23.2356100385      -28.1060500690        7.1428799427
 AR         4.1120330370        2.7137806795       -0.8358927668
 AR        14.5995481421        2.8221963782        1.9426974866
 AR        18.9874611091       16.5761978043       13.3377811446
 AR       -28.5980822815        2.8444268826       -9.2535387064
 AR        -5.9712901156      -16.2399213434       -9.2363851104
 AR        10.0306310772       16.3747628585        5.1404559543
 AR        -7.2249325189        6.3353570510       -0.6555979847
 AR       -12.0159341171      -10.4430866945       -6.4277156287
 AR        -8.5300478165       12.9098107697       -0.8856012853
 AR       -25.3654290193        3.3245420151       -7.9424094974
 AR         2.9087071165      -12.9459845951       -7.9384659483
 AR       -13.6057598245       11.9857144555       -3.5507003076
 AR        13.1383430915        4.9639218297       -3.4923353172
 AR       -13.3352625394       16.0439731960        7.0370574053
 AR        -4.1357528250      -19.5215486988       21.0189841078
 AR        -8.4371241312       16.3177584857      -18.2899971118
 AR         0.7979342761        9.6023750338       22.1851547716
 AR        -2.9149186627       -7.9492669869      -21.3357017860
 AR        -6.3934011626       -4.5609823523        2.7679855033
 AR        -4.0389727556      -14.9544614606       -5.5722729261
 AR       -27.8282499855        0.8321321126       -3.0270454709
 AR        -2.8507499499        7.1051698576        6.1910731919
 AR        -8.7038722232       -6.6598321493       -9.1631001016
 AR       -11.9380512772       -2.2209218708       -1.8503878409
 AR        22.6663204612       12.1921791339        1.0011139822
 AR         6.2668431038       -0.7750046157       -6.9248772714
 AR         3.4772923264       -7.9790679851       -0.4341278247
 AR         0.3858440409       17.8474940907      -17.3940210134
 AR        21.2157057778       10.2119922963      -13.0789273665
 AR         1.2479759735        5.8252193478       16.8312922717
 AR        -7.0728072082        6.0573167933      -22.3423337843
 AR        -0.0187280045       17.4475230363        7.3665443059
 AR        15.0679247178        9.8837385768       -8.4982984797
 AR        -6.5601764245      -15.0307685089       14.7027305455
 AR        -2.2313756405       -4.1901485190       -2.4740441025
 AR         5.2096990622      -22.6340833838        7.3897648227
 AR        -8.8346863176       -2.4754697575        2.3646351027
 AR         6.7370693072        0.4374400046        5.4562109386
 AR        11.9372609736        8.1142206211        2.3959857191
 AR       -14.5370545645       -0.4751352371      -13.7092929565
 AR        14.1093318938       -3.0050574654       24.6785447047
 AR        -3.3482867255       -0.6797035725       -7.3712281338
 AR         7.7892821892        3.2777181487       -0.0783357882
 AR        -1.1239285711      -17.1736966385      -12.9225079011
 AR        -9.2036269926      -10.4621859318       -8.3765168925
 AR        -6.4725182750       -3.9103133092      -10.6352487798
 AR         0.9934994889       13.7093409989        5.0755974107
 AR         8.8664707548        9.9433217717        1.0923636731
 AR        -6.5698035834      -20.3936245283       -7.2855979448
 AR        -0.4616684627       19.5796704560       11.0148409482
 AR         7.3455468936       -2.7013855649        7.2725349892
 AR        13.8625696096       12.1794296353        1.2516190251
 AR        -3.6727238643       19.7680019732      -11.8057900849
 AR         1.4916659095       -5.3936884770        1.9623334796
 AR        18.5911753340        3.0074750901        2.0410078332
 AR         6.2109669417       -9.4508734577        5.5607905139
 AR         3.6202723700        3.4484978663       -4.3319596658
 AR         2.6911574398        2.2887047236        5.9799867782
 AR        24.5010457553        4.0160168633       13.1518893757
 AR        -0.6061466770        3.6422140179        6.3963256498
     108
 i =      10, E =       -0.2065411056
 AR        -8.5538870644      -15.5978269700        2.9081109469
 AR         1.4885910275        9.2994367013       11.2235980090
 AR        11.9593888995       -7.4763068605       -9.9418290913
 AR       -12.6874073797       -3.3027457865        4.0738341871
 AR        -1.7858374531       -0.2098734464       13.1526729514
 AR         7.9818129714       -2.5931744602       -4.1578273782
 AR         8.5990384116        3.9855692853        5.5652028350
 AR        -3.8343476773      -10.2980209574       -6.9900240785
 AR        -3.3088505984      -16.1189890792       16.1434251095
 AR         9.7734832149      -16.2230717126       -5.6921154269
 AR         0.5123063930       -4.2613049480       12.4585945314
 AR        15.5466261366       -7.9512990735        2.2074865130
 AR        -5.3528739757       -2.6448302332       -0.6260211295
 AR        -0.0796026208       -1.7301718038       -7.1138783672
 AR         7.4821641598       -5.4971154606      -12.8879179321
 AR        -5.4384635489        0.5719555062        2.0524774565
 AR       -11.8511343250        3.3961822034        3.7058718988
 AR        16.7329489878       -7.4534687743       -1.0079468500
 AR       -20.4464321834       -5.6780272490        4.7849306504
 AR        14.8416844108       -1.4293876883      -16.0332414462
 AR         8.0429916722       -8.1543164059       -4.8284995486
 AR        12.2564389450       -1.7023643908       12.9256971234
 AR        -0.3993577032      -11.1303416787       20.4834932832
 AR         2.3077438319        5.9517974052      -11.1503315712
 AR       -13.9975730363        8.7857195890        8.0779165807
 AR       -10.3053417676        6.3816197011      -15.3773381812
 AR        -2.7251311010      -21.4603912525       10.8275781241
 AR       -17.7815508852      -10.7900909610       -4.8372429592
 AR         5.2645284284       -6.7624354071       -6.0904505136
 AR         3.5372242994      -10.0918467292        3.0193136235
 AR       -16.1173791222       -5.1468897634        8.5751546405
 AR        -5.8333875707        4.3034343886        2.6069978634
 AR         6.3089679617       27.5383567074       14.9829478604
 AR        -3.2135758923       23.2857034450      -16.8410558155
 AR        -4.1772888662        9.3422334851       16.5617892891
 AR        -7.5967168583       -9.5043122354      -29.8013895102
 AR         0.5363225453       13.9166571307       -0.4278568623
 AR        -5.2776630928       -5.5310013620      -20.2841828869
 AR        22.9835501412        6.7357240849       -1.9947619651
 AR        19.7301406613      -10.2466040515       -3.3458997463
 AR         0.1423228111        6.5803570329        8.9078596597
 AR         5.5599421783        0.2269465068        0.9838190032
 AR        -3.6853314949        3.9535013769       25.8465207478
 AR        -0.2636189135       20.4093317152       -2.4951051015
 AR         2.9404043442        0.7997440410        9.9756380646
 AR         3.3436139219       -2.9233375273       -6.3893499837
 AR        -6.1570608914       -6.8575985670       -6.4402976615
 AR       -23.2378887114      -28.0992953081        7.1517999591
 AR         4.1088023571        2.7139552551       -0.8202412235
 AR        14.5846579498        2.8371684521        1.9499444320
 AR        19.0131968195       16.5865050565       13.3367929233
 AR       -28.5898115058        2.8455145214       -9.2738140843
 AR        -5.9734490156      -16.2605305633       -9.2452464801
 AR        10.0158340521       16.3678718466        5.1556918600
 AR        -7.2263722619        6.3262940872       -0.6306301298
 AR       -12.0221530780      -10.4236344069       -6.4213977892
 AR        -8.5307248771       12.9238312724       -0.8812775521
 AR       -25.3668001966        3.3199527190       -7.9477034072
 AR         2.9146065325      -12.9266686164       -7.9292451799
 AR       -13.6183068178       11.9848389151       -3.5498228781
 AR        13.1387703677        4.9585817437       -3.4760947180
 AR       -13.3445582200       16.0503542364        7.0232146798
 AR        -4.1205757473      -19.5350395371       21.0192965867
 AR        -8.4457389685       16.3344245966      -18.2938433440
 AR         0.8062196295        9.6165697086       22.1993517537
 AR        -2.9039597165       -7.9265577009      -21.3250283134
 AR        -6.3879681225       -4.5643099093        2.7813338946
 AR        -4.0353696972      -14.9856388050       -5.5587600067
 AR       -27.8121838222        0.8629658757       -3.0295187622
 AR        -2.8610597019        7.0955510481        6.1976519068
 AR        -8.7261322194       -6.6508171146       -9.1702914890
 AR       -11.9177552138       -2.2337911924       -1.8608277281
 AR        22.6532844906       12.1825731674        0.9900610037
 AR         6.2406190037       -0.7799329057       -6.9368912897
 AR         3.4545491855       -7.9531229670       -0.4410228727
 AR         0.3866395402       17.8206724951      -17.3863423298
 AR        21.2090318298       10.1955266556      -13.0736836735
 AR         1.2750795921        5.8161322122       16.8228951729
 AR        -7.0594967765        6.0818072577      -22.3655004353
 AR        -0.0123358249       17.4305642451        7.3647627348
 AR        15.0428771993        9.8805176807       -8.5042079420
 AR        -6.5432252664      -15.0163481030       14.6864939835
 AR        -2.2362578312       -4.1964447875       -2.4778914545
 AR         5.2129933075      -22.6171381735        7.3863662709
 AR        -8.8166905143       -2.4732311602        2.3747632991
 AR         6.7221419888        0.4439719576        5.4797807679
 AR        11.9533411813        8.0984614491        2.3914559774
 AR       -14.5276150291       -0.4775537957      -13.7166432744
 AR        14.1071235509       -3.0236986650       24.6757845572
 AR        -3.3473650751       -0.6759836616       -7.3720506148
 AR         7.7875822342        3.2495060388       -0.0843411200
 AR        -1.1158056538      -17.1843094937      -12.9375673031
 AR        -9.1984962566      -10.4414091431       -8.3709266999
 AR        -6.4677413703       -3.9158499483      -10.6246157963
 AR         0.9987006249       13.6857869860        5.0809166158
 AR         8.8739054330        9.9271697436        1.0913722090
 AR        -6.5605442076      -20.3897187058       -7.2821576092
 AR        -0.4738214826       19.5781967901       10.9965790668
 AR         7.3327690410       -2.7071340900        7.2858552767
 AR        13.8507568589       12.1723320941        1.2540176116
 AR        -3.6905282050       19.7572821370      -11.7988712315
 AR         1.4869845591       -5.3975182999        2.0019208047
 AR        18.6014804993        3.0077851093        2.0197101209
 AR         6.2153792349       -9.4301476342        5.5742840760
 AR         3.5906906806        3.4658885697       -4.3538059505
 AR         2.7044376664        2.2845565611        5.9761138210
 AR        24.4971516963        4.0265694984       13.1653881929
 AR        -0.6113568719        3.6585682779        6.4105314595
     108
 i =      15, E =       -0.2065809048
 AR        -8.5659982862      -15.6102656660        2.9329026212
 AR         1.4680129467        9.3106870593       11.2513623086
 AR        11.9452059322       -7.4727608660       -9.9343160115
 AR       -12.6947612687       -3.2857707802        4.0755165476
 AR        -1.7920310553       -0.1991217281       13.1336768531
 AR         7.9677136666       -2.6050199056       -4.1763006196
 AR         8.6122681188        3.9732188352        5.5630513046
 AR        -3.8070945221      -10.2988521973       -6.9920091375
 AR        -3.2885527658      -16.1269212161       16.1509140146
 AR         9.7682697517      -16.2122859004       -5.6903182817
 AR         0.5137669870       -4.2788536847       12.4495379733
 AR        15.5438966199       -7.9400298235        2.2087431487
 AR        -5.3265814094       -2.6437693697       -0.5981256094
 AR        -0.0686596488       -1.7291746324       -7.1117013269
 AR         7.4631208262       -5.4835508175      -12.8915553263
 AR        -5.4292214182        0.5745898028        2.0589239997
 AR       -11.8515638342        3.3939873691        3.6960111836
 AR        16.7477461993       -7.4469120491       -1.0028393213
 AR       -20.4476850097       -5.6517852225        4.7704547947
 AR        14.8452877195       -1.4378606171      -16.0142662218
 AR         8.0481173388       -8.1663423414       -4.8666370107
 AR        12.2502698311       -1.7020728394       12.9126325647
 AR        -0.3881590488      -11.1415383322       20.5058363422
 AR         2.3211245728        5.9689132903      -11.1419955490
 AR       -14.0187409703        8.7920381505        8.0825726402
 AR       -10.3035355918        6.3824008872      -15.4011434677
 AR        -2.7302546892      -21.4546120176       10.8126231692
 AR       -17.7837961553      -10.7980380931       -4.8367894965
 AR         5.2792969926       -6.7490568795       -6.1048458507
 AR         3.5439521926      -10.0825599958        3.0425985136
 AR       -16.1026694745       -5.1306754555        8.5805173392
 AR        -5.8482797263        4.2941623354        2.6336180851
 AR         6.3212746325       27.5312488489       14.9687366508
 AR        -3.2261625556       23.2849479094      -16.8668795999
 AR        -4.1666224127        9.3377627253       16.5509713445
 AR        -7.5810002870       -9.4974025099      -29.8002384937
 AR         0.5321242492       13.9201870864       -0.4522638247
 AR        -5.2851173580       -5.5287431536      -20.2836150492
 AR        22.9892472956        6.7123735600       -2.0008856317
 AR        19.7169311558      -10.2543417950       -3.3563330697
 AR         0.1342632605        6.5752457948        8.9099897683
 AR         5.5536598804        0.2220116712        0.9640877799
 AR        -3.7065451364        3.9452604995       25.8380656532
 AR        -0.2718029087       20.3979799639       -2.4886351217
 AR         2.9428666567        0.7692105133        9.9840228798
 AR         3.3657815109       -2.9238817043       -6.4130464076
 AR        -6.1593402054       -6.8645283997       -6.4321136348
 AR       -23.2457376620      -28.1011145269        7.1640103516
 AR         4.1054951775        2.7163358407       -0.8053252656
 AR        14.5748092491        2.8530809969        1.9577504883
 AR        19.0439395004       16.6010136584       13.3394143198
 AR       -28.5878325242        2.8469910082       -9.2966696775
 AR        -5.9765286902      -16.2847203296       -9.2556525428
 AR        10.0037582199       16.3646595365        5.1713283603
 AR        -7.2294127151        6.3189606776       -0.6058622338
 AR       -12.0324975090      -10.4069725779       -6.4154502300
 AR        -8.5336896349       12.9397278529       -0.8773638479
 AR       -25.3742150017        3.3175135172       -7.9551502532
 AR         2.9194661245      -12.9092786128       -7.9215061725
 AR       -13.6337215549       11.9869130724       -3.5480582615
 AR        13.1428753713        4.9553155282       -3.4598474322
 AR       -13.3574824669       16.0601067830        7.0113521205
 AR        -4.1053446208      -19.5513838499       21.0266724249
 AR        -8.4550924917       16.3563232999      -18.3003644554
 AR         0.8133678418        9.6327399628       22.2199267492
 AR        -2.8931463196       -7.9060195568      -21.3200720528
 AR        -6.3833941925       -4.5729414202        2.7953984661
 AR        -4.0334980758      -15.0206425138       -5.5451661350
 AR       -27.8045656743        0.8942423090       -3.0340301435
 AR        -2.8705916349        7.0874489522        6.2052117373
 AR        -8.7498736430       -6.6439169176       -9.1796802201
 AR       -11.9012248652       -2.2480162834       -1.8711512842
 AR        22.6457969609       12.1759547049        0.9792807641
 AR         6.2165143404       -0.7844479694       -6.9505731752
 AR         3.4318673240       -7.9292764165       -0.4473182420
 AR         0.3875768175       17.7966035590      -17.3835163422
 AR        21.2090613345       10.1838044387      -13.0714259135
 AR         1.3021171753        5.8087132210       16.8198984292
 AR        -7.0475881827        6.1074664215      -22.3946498066
 AR        -0.0053136753       17.4187001139        7.3655129339
 AR        15.0232741208        9.8798368809       -8.5115249385
 AR        -6.5279086363      -15.0052398707       14.6744353391
 AR        -2.2412454678       -4.2031099903       -2.4816773093
 AR         5.2157913592      -22.6058526285        7.3845576608
 AR        -8.8044052068       -2.4682996696        2.3847320885
 AR         6.7073280803        0.4498562127        5.5055803904
 AR        11.9745412956        8.0854431545        2.3872231151
 AR       -14.5225852637       -0.4786655999      -13.7279597215
 AR        14.1091656047       -3.0453957612       24.6761644908
 AR        -3.3481641113       -0.6705422501       -7.3732227865
 AR         7.7876677897        3.2222382230       -0.0911622012
 AR        -1.1084378724      -17.1990700148      -12.9575784771
 AR        -9.1952563446      -10.4224141207       -8.3680199106
 AR        -6.4642342304       -3.9239552909      -10.6181392888
 AR         1.0034495223       13.6658077571        5.0881290888
 AR         8.8833127535        9.9127124284        1.0907439930
 AR        -6.5529318069      -20.3902681729       -7.2790198113
 AR        -0.4853862532       19.5819110532       10.9803547370
 AR         7.3223938387       -2.7130902416        7.3007494767
 AR        13.8437792787       12.1690491065        1.2559937396
 AR        -3.7110318044       19.7508017832      -11.7954000340
 AR         1.4830723535       -5.4040202741        2.0427052982
 AR        18.6170878654        3.0095773862        2.0005192030
 AR         6.2206924870       -9.4120402665        5.5897824514
 AR         3.5618891638        3.4839067523       -4.3769555957
 AR         2.7182705153        2.2806710157        5.9734305888
 AR        24.4998167815        4.0392069851       13.1816337590
 AR        -0.6159215378        3.6771116370        6.4267230769
     108
 i =      20, E =       -0.2066386455
 AR        -8.5808849235      -15.6256359161        2.9567331093
 AR         1.4475897177        9.3246871828       11.2821814483
 AR        11.9320812709       -7.4707806141       -9.9298701950
 AR       -12.7037797141       -3.2705686899        4.0785561881
 AR        -1.7970145274       -0.1889105695       13.1183746863
 AR         7.9562126907       -2.6177928876       -4.1968024420
 AR         8.6274612504        3.9621754578        5.5623368361
 AR        -3.7808217025      -10.2987672794       -6.9941585129
 AR        -3.2699760967      -16.1377955180       16.1608703804
 AR         9.7648741863      -16.2075918271       -5.6892682848
 AR         0.5136063936       -4.2974156050       12.4432004181
 AR        15.5449926014       -7.9311650107        2.2117399267
 AR        -5.3013198374       -2.6428346759       -0.5703321790
 AR        -0.0567908281       -1.7297499077       -7.1096928846
 AR         7.4462219529       -5.4718143817      -12.8978572771
 AR        -5.4201081053        0.5764991250        2.0652969150
 AR       -11.8548863044        3.3929620020        3.6865573070
 AR        16.7672124845       -7.4419130846       -0.9992545700
 AR       -20.4533115301       -5.6282161824        4.7578444391
 AR        14.8536364377       -1.4475249570      -15.9997745416
 AR         8.0567449205       -8.1816560978       -4.9056651862
 AR        12.2458004356       -1.7027696978       12.9031525109
 AR        -0.3770451377      -11.1558233036       20.5332948710
 AR         2.3347159219        5.9868950037      -11.1355485102
 AR       -14.0430422879        8.8005486029        8.0890721981