     108
 i =       0, E =       -0.2065178131
 AR        -0.0000420774       -0.0000637326        0.0001265518
 AR        -0.0000911923        0.0000433552        0.0001179159
 AR        -0.0000467770        0.0000158169        0.0000407527
 AR        -0.0000442802        0.0000844068        0.0000017477
 AR        -0.0000433869        0.0000521835       -0.0000930636
 AR        -0.0000726482       -0.0000490121       -0.0000706848
 AR         0.0000598833       -0.0000600018       -0.0000113723
 AR         0.0001268638       -0.0000423947       -0.0000253974
 AR         0.0001035847       -0.0000437495        0.0000472081
 AR        -0.0000205602        0.0000766657        0.0000020262
 AR         0.0000233041       -0.0000767653       -0.0000432872
 AR        -0.0000146526        0.0000556515       -0.0000070951
 AR         0.0001124328        0.0000011240        0.0001237911
 AR         0.0000376470        0.0000172554       -0.0000041597
 AR        -0.0000916722        0.0000685442       -0.0000192757
 AR         0.0000259550        0.0000220396        0.0000371903
 AR         0.0000014468       -0.0000146296       -0.0000405212
 AR         0.0000563227        0.0000289848        0.0000380987
 AR        -0.0000074581        0.0001284441       -0.0000700264
 AR         0.0000011521       -0.0000284917        0.0000933310
 AR         0.0000016171       -0.0000373667       -0.0001736342
 AR        -0.0000161578        0.0000081188       -0.0000658080
 AR         0.0000502586       -0.0000416442        0.0000941351
 AR         0.0000629376        0.0000801170        0.0000339748
 AR        -0.0000956782        0.0000284214        0.0000228593
 AR         0.0000036868       -0.0000001337       -0.0001041522
 AR        -0.0000144840        0.0000362923       -0.0000792716
 AR         0.0000023100       -0.0000262202       -0.0000048437
 AR         0.0000801482        0.0000561187       -0.0000421588
 AR         0.0000372566        0.0000615658        0.0001296188
 AR         0.0000708454        0.0000736053        0.0000224681
 AR        -0.0000592447       -0.0000479979        0.0001196291
 AR         0.0000443082       -0.0000442632       -0.0000773371
 AR        -0.0000691179        0.0000079675       -0.0001073862
 AR         0.0000516686       -0.0000311084       -0.0000286821
 AR         0.0001117146        0.0000309625        0.0000022453
 AR        -0.0000193496       -0.0000051641       -0.0000926084
 AR        -0.0000038868        0.0000062014        0.0000123444
 AR         0.0000076040       -0.0001030476       -0.0000314532
 AR        -0.0000678976       -0.0000375403       -0.0000340218
 AR        -0.0000300756       -0.0000281514        0.0000176341
 AR        -0.0000402344       -0.0000084813       -0.0001032397
 AR        -0.0001046885       -0.0000074965       -0.0000161554
 AR        -0.0000332550       -0.0000642035        0.0000390208
 AR         0.0000154034       -0.0001315931        0.0000307503
 AR         0.0000915385       -0.0000031566       -0.0000960507
 AR        -0.0000168678       -0.0000266237        0.0000410292
 AR        -0.0000319769        0.0000174790        0.0000367536
 AR        -0.0000044303       -0.0000059568        0.0000722713
 AR        -0.0000648589        0.0000692504        0.0000341398
 AR         0.0001310228        0.0000605030        0.0000049738
 AR         0.0000062489        0.0000111028       -0.0000970612
 AR        -0.0000188051       -0.0001099037       -0.0000516323
 AR        -0.0000603304       -0.0000162774        0.0000785451
 AR        -0.0000140669       -0.0000371713        0.0001136996
 AR        -0.0000303139        0.0000812595        0.0000145892
 AR        -0.0000087908        0.0000840580        0.0000205326
 AR        -0.0000296761       -0.0000265180       -0.0000304359
 AR         0.0000425603        0.0000650334        0.0000313638
 AR        -0.0000696451        0.0000052788       -0.0000111108
 AR         0.0000101008       -0.0000268437        0.0000639409
 AR        -0.0000519447        0.0000465609       -0.0000584681
 AR         0.0000568764       -0.0000893862        0.0000077192
 AR        -0.0000540592        0.0000801987       -0.0000461208
 AR         0.0000466005        0.0000756410        0.0000782352
 AR         0.0000440310        0.0000978128        0.0000327754
 AR         0.0000137470        0.0000080538        0.0000632666
 AR         0.0000175078       -0.0001502311        0.0000462395
 AR         0.0000581530        0.0001373616       -0.0000048232
 AR        -0.0000596367       -0.0000359757        0.0000390943
 AR        -0.0001121297        0.0000380663       -0.0000407015
 AR         0.0000879128       -0.0000538498       -0.0000534797
 AR        -0.0000394842       -0.0000328950       -0.0000493768
 AR        -0.0001169297       -0.0000269123       -0.0000609721
 AR        -0.0000942850        0.0001120707       -0.0000376107
 AR         0.0000039311       -0.0000952370        0.0000238037
 AR        -0.0000207670       -0.0000775958        0.0000116573
 AR         0.0001272776       -0.0000381255       -0.0000318449
 AR         0.0000525662        0.0001181616       -0.0001217339
 AR         0.0000243191       -0.0000661480       -0.0000093283
 AR        -0.0001113835       -0.0000061667       -0.0000387033
 AR         0.0000720840        0.0000499257       -0.0000644704
 AR        -0.0000266472       -0.0000368996       -0.0000247601
 AR         0.0000291725        0.0000571661       -0.0000076452
 AR         0.0000978186       -0.0000136119        0.0000527900
 AR        -0.0000511529        0.0000343058        0.0001058942
 AR         0.0000687624       -0.0000697056       -0.0000167069
 AR         0.0000351054       -0.0000201080       -0.0000418393
 AR        -0.0000031220       -0.0000701942        0.0000299413
 AR         0.0000086400        0.0000007781       -0.0000229785
 AR         0.0000004015       -0.0001270410       -0.0000212706
 AR         0.0000401024       -0.0000633373       -0.0000657407
 AR         0.0000121233        0.0000797146        0.0000231628
 AR         0.0000134115       -0.0000174837        0.0000493635
 AR         0.0000291384       -0.0000962939        0.0000248614
 AR         0.0000432677       -0.0000589999       -0.0000044047
 AR         0.0000366805       -0.0000039420       -0.0000005781
 AR        -0.0000602921        0.0000082178       -0.0000691902
 AR        -0.0000548277       -0.0000308928        0.0000683204
 AR        -0.0000511234       -0.0000275884        0.0000161911
 AR        -0.0000704554       -0.0000272656        0.0000251526
 AR        -0.0000243845       -0.0000097470        0.0001732976
 AR         0.0000581679       -0.0000013581       -0.0001064230
 AR         0.0000310623        0.0000882941        0.0000620236
 AR        -0.0001305485        0.0000832885       -0.0001002612
 AR         0.0000620670       -0.0000140052       -0.0000104601
 AR         0.0000011732        0.0000459714        0.0000753777
 AR        -0.0000302121        0.0000672415        0.0000675194
     108
 i =       5, E =       -0.2065228755
 AR        -0.0000469036       -0.0000590124        0.0001219208
 AR        -0.0000927119        0.0000454619        0.0001206042
 AR        -0.0000553766        0.0000167014        0.0000400920
 AR        -0.0000389498        0.0000830852        0.0000037769
 AR        -0.0000377852        0.0000513824       -0.0000926142
 AR        -0.0000705795       -0.0000509417       -0.0000758626
 AR         0.0000590661       -0.0000593031       -0.0000115584
 AR         0.0001262947       -0.0000258507       -0.0000181870
 AR         0.0000998228       -0.0000388060        0.0000400964
 AR        -0.0000229403        0.0000680035        0.0000052023
 AR         0.0000172248       -0.0000781330       -0.0000436055
 AR        -0.0000160660        0.0000556070       -0.0000025874
 AR         0.0001172896        0.0000026320        0.0001259568
 AR         0.0000428044        0.0000126150        0.0000019259
 AR        -0.0000909000        0.0000667119       -0.0000165795
 AR         0.0000337907        0.0000179651        0.0000335728
 AR         0.0000014626       -0.0000132489       -0.0000427567
 AR         0.0000588226        0.0000302724        0.0000324063
 AR        -0.0000042011        0.0001269958       -0.0000700328
 AR         0.0000051900       -0.0000323989        0.0000932605
 AR         0.0000095407       -0.0000434413       -0.0001738613
 AR        -0.0000224646        0.0000056906       -0.0000653550
 AR         0.0000508679       -0.0000445753        0.0000951182
 AR         0.0000622698        0.0000792562        0.0000365167
 AR        -0.0000945502        0.0000271139        0.0000208786
 AR         0.0000069832        0.0000006154       -0.0001042995
 AR        -0.0000178865        0.0000351348       -0.0000767463
 AR        -0.0000002710       -0.0000289303       -0.0000015759
 AR         0.0000751852        0.0000584074       -0.0000510619
 AR         0.0000340551        0.0000562371        0.0001210592
 AR         0.0000716268        0.0000747068        0.0000222079
 AR        -0.0000620515       -0.0000464347        0.0001202306
 AR         0.0000486471       -0.0000428753       -0.0000740880
 AR        -0.0000643549        0.0000011224       -0.0001095984
 AR         0.0000511880       -0.0000283500       -0.0000391117
 AR         0.0000972907        0.0000322934        0.0000070067
 AR        -0.0000200157        0.0000030271       -0.0001015981
 AR        -0.0000149872        0.0000084937        0.0000108640
 AR         0.0000128403       -0.0001059205       -0.0000299415
 AR        -0.0000679372       -0.0000356952       -0.0000391977
 AR        -0.0000328271       -0.0000271668        0.0000134214
 AR        -0.0000366171       -0.0000136458       -0.0000985484
 AR        -0.0001008555       -0.0000193518       -0.0000292692
 AR        -0.0000349434       -0.0000617698        0.0000355480
 AR         0.0000136570       -0.0001364355        0.0000328896
 AR         0.0000957180       -0.0000020222       -0.0001006872
 AR        -0.0000136384       -0.0000279426        0.0000406493
 AR        -0.0000306228        0.0000106683        0.0000433935
 AR        -0.0000088931       -0.0000001529        0.0000716701
 AR        -0.0000588656        0.0000702938        0.0000345755
 AR         0.0001329291        0.0000609360        0.0000061312
 AR         0.0000114162        0.0000084148       -0.0000995665
 AR        -0.0000162080       -0.0001087692       -0.0000496904
 AR        -0.0000596350       -0.0000170052        0.0000757311
 AR        -0.0000131418       -0.0000364379        0.0001136459
 AR        -0.0000358883        0.0000805128        0.0000205514
 AR        -0.0000098506        0.0000780665        0.0000194914
 AR        -0.0000283367       -0.0000210771       -0.0000306337
 AR         0.0000336702        0.0000737822        0.0000341636
 AR        -0.0000695373        0.0000060094       -0.0000030449
 AR         0.0000120947       -0.0000222926        0.0000690448
 AR        -0.0000531153        0.0000440680       -0.0000577768
 AR         0.0000630915       -0.0000822941        0.0000151767
 AR        -0.0000493289        0.0000869780       -0.0000373861
 AR         0.0000414146        0.0000739155        0.0000817769
 AR         0.0000463749        0.0000974392        0.0000315595
 AR         0.0000175856       -0.0000097094        0.0000633163
 AR         0.0000146036       -0.0001541248        0.0000535715
 AR         0.0000530190        0.0001406134       -0.0000108741
 AR        -0.0000529351       -0.0000373411        0.0000365824
 AR        -0.0001103758        0.0000365104       -0.0000407213
 AR         0.0000844709       -0.0000586280       -0.0000506472
 AR        -0.0000401695       -0.0000334333       -0.0000496538
 AR        -0.0001155774       -0.0000244874       -0.0000608697
 AR        -0.0000989675        0.0001120258       -0.0000336665
 AR         0.0000039161       -0.0001035176        0.0000215764
 AR        -0.0000155590       -0.0000709243        0.0000124168
 AR         0.0001257780       -0.0000371184       -0.0000268316
 AR         0.0000540947        0.0001176222       -0.0001237949
 AR         0.0000276489       -0.0000641875       -0.0000040083
 AR        -0.0001052988       -0.0000064214       -0.0000357585
 AR         0.0000719717        0.0000521770       -0.0000628279
 AR        -0.0000251364       -0.0000338660       -0.0000213123
 AR         0.0000230828        0.0000581542       -0.0000087345
 AR         0.0000827212        0.0000006742        0.0000499081
 AR        -0.0000588228        0.0000317478        0.0001102452
 AR         0.0000786117       -0.0000667683       -0.0000179712
 AR         0.0000324627       -0.0000145129       -0.0000440030
 AR         0.0000001536       -0.0000821010        0.0000153633
 AR         0.0000036561        0.0000115322       -0.0000139675
 AR        -0.0000007410       -0.0001264853       -0.0000255554
 AR         0.0000374070       -0.0000632094       -0.0000753739
 AR         0.0000145997        0.0000841195        0.0000199611
 AR         0.0000154709       -0.0000249212        0.0000429773
 AR         0.0000261696       -0.0000962920        0.0000272770
 AR         0.0000420488       -0.0000634595       -0.0000038483
 AR         0.0000367740       -0.0000008566        0.0000061343
 AR        -0.0000574769        0.0000091893       -0.0000725379
 AR        -0.0000532741       -0.0000294654        0.0000675163
 AR        -0.0000453353       -0.0000239701        0.0000135413
 AR        -0.0000800723       -0.0000306753        0.0000228165
 AR        -0.0000213175       -0.0000184653        0.0001801966
 AR         0.0000612647        0.0000022105       -0.0000992757
 AR         0.0000271049        0.0000873196        0.0000649496
 AR        -0.0001317561        0.0000828125       -0.0001027111
 AR         0.0000629427       -0.0000161584       -0.0000119443
 AR         0.0000021147        0.0000494813        0.0000738271
 AR        -0.0000262490        0.0000745742        0.0000694179
     108
 i =      10, E =       -0.2065411056
 AR        -0.0000510044       -0.0000543414        0.0001159302
 AR        -0.0000939744        0.0000475490        0.0001226799
 AR        -0.0000641077        0.0000178569        0.0000385146
 AR        -0.0000329634        0.0000804285        0.0000056020
 AR        -0.0000313123        0.0000500965       -0.0000916134
 AR        -0.0000682049       -0.0000526188       -0.0000808060
 AR         0.0000582459       -0.0000583005       -0.0000115939
 AR         0.0001258819       -0.0000089421       -0.0000106653
 AR         0.0000958403       -0.0000338022        0.0000328783
 AR        -0.0000254855        0.0000589287        0.0000083897
 AR         0.0000102965       -0.0000788255       -0.0000445251
 AR        -0.0000169843        0.0000547082        0.0000024188
 AR         0.0001206945        0.0000045543        0.0001273340
 AR         0.0000477315        0.0000076598        0.0000085964
 AR        -0.0000899197        0.0000647267       -0.0000139518
 AR         0.0000407923        0.0000138851        0.0000303108
 AR         0.0000015749       -0.0000118097       -0.0000450469
 AR         0.0000613041        0.0000315882        0.0000265832
 AR        -0.0000010442        0.0001239421       -0.0000687757
 AR         0.0000095943       -0.0000363413        0.0000924383
 AR         0.0000172823       -0.0000495007       -0.0001733694
 AR        -0.0000288133        0.0000031478       -0.0000643738
 AR         0.0000512227       -0.0000468635        0.0000957049
 AR         0.0000611697        0.0000775748        0.0000396884
 AR        -0.0000932112        0.0000263527        0.0000193626
 AR         0.0000100167        0.0000013015       -0.0001042290
 AR        -0.0000210767        0.0000337614       -0.0000735476
 AR        -0.0000032092       -0.0000316546        0.0000018265
 AR         0.0000692136        0.0000614374       -0.0000597382
 AR         0.0000310689        0.0000495014        0.0001110674
 AR         0.0000720708        0.0000754533        0.0000219845
 AR        -0.0000648754       -0.0000446625        0.0001207022
 AR         0.0000525511       -0.0000415469       -0.0000710081
 AR        -0.0000592332       -0.0000065005       -0.0001117843
 AR         0.0000504746       -0.0000251027       -0.0000494519
 AR         0.0000819645        0.0000337263        0.0000119530
 AR        -0.0000197948        0.0000093724       -0.0001086447
 AR        -0.0000265553        0.0000108286        0.0000094697
 AR         0.0000171890       -0.0001080478       -0.0000282761
 AR        -0.0000671510       -0.0000334816       -0.0000442350
 AR        -0.0000355398       -0.0000260251        0.0000091446
 AR        -0.0000325818       -0.0000194717       -0.0000933031
 AR        -0.0000974007       -0.0000322731       -0.0000412212
 AR        -0.0000365593       -0.0000593397        0.0000320612
 AR         0.0000115597       -0.0001392104        0.0000345904
 AR         0.0000990247       -0.0000015308       -0.0001046596
 AR        -0.0000102824       -0.0000290847        0.0000399009
 AR        -0.0000293548        0.0000037506        0.0000502045
 AR        -0.0000137901        0.0000064563        0.0000698084
 AR        -0.0000526535        0.0000713438        0.0000349379
 AR         0.0001342435        0.0000611834        0.0000072980
 AR         0.0000159029        0.0000064714       -0.0001012180
 AR        -0.0000135788       -0.0001068618       -0.0000466847
 AR        -0.0000587375       -0.0000185736        0.0000720701
 AR        -0.0000121810       -0.0000357655        0.0001135087
 AR        -0.0000411385        0.0000797432        0.0000263502
 AR        -0.0000106540        0.0000718362        0.0000185696
 AR        -0.0000268936       -0.0000152194       -0.0000312009
 AR         0.0000252676        0.0000806970        0.0000367070
 AR        -0.0000677986        0.0000060497        0.0000050913
 AR         0.0000139043       -0.0000182624        0.0000734284
 AR        -0.0000543411        0.0000412264       -0.0000568976
 AR         0.0000685488       -0.0000736512        0.0000231512
 AR        -0.0000434627        0.0000926798       -0.0000285799
 AR         0.0000355719        0.0000719991        0.0000853970
 AR         0.0000489490        0.0000967487        0.0000300464
 AR         0.0000212529       -0.0000285126        0.0000633898
 AR         0.0000114865       -0.0001556631        0.0000605199
 AR         0.0000468264        0.0001424221       -0.0000168069
 AR        -0.0000461118       -0.0000386179        0.0000339787
 AR        -0.0001076204        0.0000346400       -0.0000403984
 AR         0.0000809775       -0.0000626362       -0.0000479364
 AR        -0.0000408410       -0.0000338361       -0.0000496695
 AR        -0.0001134852       -0.0000218319       -0.0000606048
 AR        -0.0001029919        0.0001116993       -0.0000301877
 AR         0.0000040352       -0.0001115942        0.0000193417
 AR        -0.0000096062       -0.0000620257        0.0000135745
 AR         0.0001240952       -0.0000361603       -0.0000215590
 AR         0.0000557134        0.0001163560       -0.0001255893
 AR         0.0000307062       -0.0000613279       -0.0000001446
 AR        -0.0000981540       -0.0000063217       -0.0000325372
 AR         0.0000719784        0.0000543360       -0.0000607902
 AR        -0.0000231956       -0.0000307466       -0.0000180696
 AR         0.0000155480        0.0000585505       -0.0000099091
 AR         0.0000668542        0.0000157039        0.0000466099
 AR        -0.0000662454        0.0000285982        0.0001143718
 AR         0.0000884685       -0.0000636180       -0.0000194100
 AR         0.0000292613       -0.0000082893       -0.0000463111
 AR         0.0000034094       -0.0000932003        0.0000010532
 AR        -0.0000007429        0.0000210514       -0.0000062467
 AR        -0.0000016412       -0.0001259268       -0.0000294036
 AR         0.0000350342       -0.0000626623       -0.0000838377
 AR         0.0000167386        0.0000881529        0.0000171117
 AR         0.0000172500       -0.0000322570        0.0000362832
 AR         0.0000230282       -0.0000958940        0.0000299524
 AR         0.0000408612       -0.0000673749       -0.0000033946
 AR         0.0000368086        0.0000022180        0.0000130759
 AR        -0.0000543653        0.0000103396       -0.0000758729
 AR        -0.0000510584       -0.0000275524        0.0000664705
 AR        -0.0000392736       -0.0000204345        0.0000104093
 AR        -0.0000887061       -0.0000340310        0.0000205747
 AR        -0.0000191188       -0.0000253164        0.0001845991
 AR         0.0000642317        0.0000056522       -0.0000919922
 AR         0.0000238032        0.0000862372        0.0000677644
 AR        -0.0001325289        0.0000819174       -0.0001041445
 AR         0.0000628347       -0.0000178254       -0.0000133880
 AR         0.0000036522        0.0000539293        0.0000716137
 AR        -0.0000224526        0.0000808973        0.0000712096
     108
 i =      15, E =       -0.2065809048
 AR        -0.0000543284       -0.0000498515        0.0001087183
 AR        -0.0000950176        0.0000495802        0.0001241409
 AR        -0.0000728718        0.0000191581        0.0000361263
 AR        -0.0000263894        0.0000765731        0.0000072512
 AR        -0.0000240860        0.0000481985       -0.0000899827
 AR        -0.0000655222       -0.0000540283       -0.0000854669
 AR         0.0000574237       -0.0000569886       -0.0000114501
 AR         0.0001256334        0.0000074985       -0.0000032536
 AR         0.0000917260       -0.0000288492        0.0000257103
 AR        -0.0000281931        0.0000495775        0.0000115079
 AR         0.0000026182       -0.0000788751       -0.0000459950
 AR        -0.0000174077        0.0000530594        0.0000077613
 AR         0.0001226940        0.0000068246        0.0001279167
 AR         0.0000522726        0.0000024894        0.0000157363
 AR        -0.0000887085        0.0000626285       -0.0000114199
 AR         0.0000468546        0.0000098632        0.0000274332
 AR         0.0000017782       -0.0000103308       -0.0000473712
 AR         0.0000636844        0.0000329212        0.0000207297
 AR         0.0000021393        0.0001190928       -0.0000662669
 AR         0.0000142953       -0.0000402176        0.0000906667
 AR         0.0000245250       -0.0000553920       -0.0001721904
 AR        -0.0000350645        0.0000005588       -0.0000628917
 AR         0.0000513599       -0.0000485711        0.0000959294
 AR         0.0000596683        0.0000751071        0.0000434508
 AR        -0.0000916811        0.0000261184        0.0000183418
 AR         0.0000127550        0.0000019155       -0.0001039213
 AR        -0.0000240525        0.0000321902       -0.0000696835
 AR        -0.0000064726       -0.0000343805        0.0000052873
 AR         0.0000624471        0.0000651134       -0.0000680468
 AR         0.0000283078        0.0000413235        0.0000997068
 AR         0.0000722309        0.0000758681        0.0000217865
 AR        -0.0000676806       -0.0000427060        0.0001210219
 AR         0.0000560029       -0.0000403340       -0.0000681258
 AR        -0.0000538098       -0.0000147838       -0.0001139664
 AR         0.0000495621       -0.0000214229       -0.0000595307
 AR         0.0000663755        0.0000352901        0.0000167891
 AR        -0.0000187804        0.0000140997       -0.0001139103
 AR        -0.0000383794        0.0000132152        0.0000081722
 AR         0.0000206434       -0.0001094015       -0.0000264513
 AR        -0.0000655562       -0.0000309116       -0.0000490412
 AR        -0.0000382188       -0.0000246986        0.0000048768
 AR        -0.0000282021       -0.0000258723       -0.0000876038
 AR        -0.0000943378       -0.0000454623       -0.0000515965
 AR        -0.0000380730       -0.0000569542        0.0000286298
 AR         0.0000090743       -0.0001400765        0.0000358735
 AR         0.0001014013       -0.0000017987       -0.0001079147
 AR        -0.0000067455       -0.0000300229        0.0000387983
 AR        -0.0000281675       -0.0000031418        0.0000570199
 AR        -0.0000190054        0.0000137502        0.0000668754
 AR        -0.0000463008        0.0000723785        0.0000352107
 AR         0.0001350560        0.0000612474        0.0000085011
 AR         0.0000195465        0.0000054725       -0.0001018302
 AR        -0.0000109040       -0.0001041636       -0.0000425773
 AR        -0.0000578002       -0.0000209707        0.0000675613
 AR        -0.0000111759       -0.0000351678        0.0001132782
 AR        -0.0000459751        0.0000789628        0.0000319057
 AR        -0.0000111655        0.0000655732        0.0000177693
 AR        -0.0000253143       -0.0000090739       -0.0000320441
 AR         0.0000174922        0.0000859059        0.0000388041
 AR        -0.0000645005        0.0000054584        0.0000132040
 AR         0.0000155384       -0.0000147190        0.0000771023
 AR        -0.0000556441        0.0000380241       -0.0000558106
 AR         0.0000730123       -0.0000635293        0.0000314253
 AR        -0.0000367376        0.0000973070       -0.0000198466
 AR         0.0000291995        0.0000698969        0.0000890999
 AR         0.0000517117        0.0000958256        0.0000282916
 AR         0.0000243322       -0.0000475664        0.0000634801
 AR         0.0000080212       -0.0001546759        0.0000670913
 AR         0.0000397111        0.0001426778       -0.0000225315
 AR        -0.0000392809       -0.0000397723        0.0000313267
 AR        -0.0001038962        0.0000324611       -0.0000397532
 AR         0.0000774316       -0.0000659056       -0.0000453082
 AR        -0.0000414878       -0.0000341142       -0.0000494452
 AR        -0.0001105273       -0.0000189148       -0.0000601927
 AR        -0.0001063551        0.0001111301       -0.0000271754
 AR         0.0000043314       -0.0001192673        0.0000171640
 AR        -0.0000030241       -0.0000510231        0.0000151550
 AR         0.0001222675       -0.0000352279       -0.0000161289
 AR         0.0000575194        0.0001143465       -0.0001271300
 AR         0.0000334312       -0.0000576840        0.0000022220
 AR        -0.0000901295       -0.0000059037       -0.0000291099
 AR         0.0000720598        0.0000563964       -0.0000583827
 AR        -0.0000209995       -0.0000276171       -0.0000150664
 AR         0.0000065827        0.0000583818       -0.0000111655
 AR         0.0000509059        0.0000308577        0.0000430259
 AR        -0.0000731895        0.0000247979        0.0001180041
 AR         0.0000978913       -0.0000603384       -0.0000206937
 AR         0.0000255328       -0.0000014836       -0.0000487551
 AR         0.0000065953       -0.0001030308       -0.0000125425
 AR        -0.0000043524        0.0000287292       -0.0000003059
 AR        -0.0000023094       -0.0001253247       -0.0000328243
 AR         0.0000330880       -0.0000616526       -0.0000908961
 AR         0.0000184279        0.0000918287        0.0000146682
 AR         0.0000187166       -0.0000393942        0.0000294185
 AR         0.0000197515       -0.0000950521        0.0000329233
 AR         0.0000397028       -0.0000707857       -0.0000030323
 AR         0.0000367902        0.0000052405        0.0000200619
 AR        -0.0000510277        0.0000116424       -0.0000791775
 AR        -0.0000481605       -0.0000251516        0.0000651756
 AR        -0.0000329584       -0.0000170788        0.0000068042
 AR        -0.0000962704       -0.0000373024        0.0000183970
 AR        -0.0000176823       -0.0000305484        0.0001865870
 AR         0.0000670005        0.0000088300       -0.0000846870
 AR         0.0000210474        0.0000850571        0.0000704833
 AR        -0.0001328923        0.0000805958       -0.0001046520
 AR         0.0000618016       -0.0000190085       -0.0000147990
 AR         0.0000058097        0.0000592890        0.0000686976
 AR        -0.0000189662        0.0000861907        0.0000728473
     108
 i =      20, E =       -0.2066386455
 AR        -0.0000568944       -0.0000456600        0.0001004737
 AR        -0.0000958618        0.0000514975        0.0001249837
 AR        -0.0000815263        0.0000204990        0.0000330683
 AR        -0.0000193384        0.0000716983        0.0000087453
 AR        -0.0000161755        0.0000455685       -0.0000876507
 AR        -0.0000625412       -0.0000551591       -0.0000898216
 AR         0.0000565973       -0.0000553633       -0.0000110946
 AR         0.0001255158        0.0000227169        0.0000036636
 AR         0.0000875588       -0.0000240491        0.0000187406
 AR        -0.0000310574        0.0000400982        0.0000144741
 AR        -0.0000056600       -0.0000783458       -0.0000479293
 AR        -0.0000173367        0.0000507758        0.0000132735
 AR         0.0001233382        0.0000093962        0.0001277134
 AR         0.0000563141       -0.0000027593        0.0000231810
 AR        -0.0000872410        0.0000604625       -0.0000090086
 AR         0.0000519323        0.0000059533        0.0000249470
 AR         0.0000020639       -0.0000088333       -0.0000497059
 AR         0.0000658810        0.0000342592        0.0000149532
 AR         0.0000054687        0.0001122798       -0.0000625510
 AR         0.0000192118       -0.0000439361        0.0000877904
 AR         0.0000309317       -0.0000609387       -0.0001703966
 AR        -0.0000410810       -0.0000020058       -0.0000609374
 AR         0.0000513173       -0.0000497667        0.0000958336
 AR         0.0000578044        0.0000719044        0.0000477049
 AR        -0.0000899647        0.0000263894        0.0000178404